
 displacements (vx,vy,vz) for set TIPMARKER and time  0.1000000E+00

         2 -3.467602E-08 -2.031779E-05 -3.207418E-08

 displacements (vx,vy,vz) for set TIPMARKER and time  0.2000000E+00

         2  5.262783E-07 -9.968541E-05 -1.916692E-07

 displacements (vx,vy,vz) for set TIPMARKER and time  0.3000000E+00

         2  1.667270E-06 -2.750693E-04 -6.007819E-07

 displacements (vx,vy,vz) for set TIPMARKER and time  0.4000000E+00

         2  3.361267E-06 -5.766238E-04 -1.365735E-06

 displacements (vx,vy,vz) for set TIPMARKER and time  0.5000000E+00

         2  5.577451E-06 -1.023152E-03 -2.555544E-06

 displacements (vx,vy,vz) for set TIPMARKER and time  0.6000000E+00

         2  8.271635E-06 -1.631801E-03 -4.218073E-06

 displacements (vx,vy,vz) for set TIPMARKER and time  0.7000000E+00

         2  1.139965E-05 -2.443460E-03 -6.447263E-06

 displacements (vx,vy,vz) for set TIPMARKER and time  0.8000000E+00

         2  1.490432E-05 -3.527494E-03 -9.429699E-06

 displacements (vx,vy,vz) for set TIPMARKER and time  0.9000000E+00

         2  1.873123E-05 -4.949900E-03 -1.340175E-05

 displacements (vx,vy,vz) for set TIPMARKER and time  0.1000000E+01

         2  2.281291E-05 -6.750164E-03 -1.856216E-05

 displacements (vx,vy,vz) for set TIPMARKER and time  0.1100000E+01

         2  2.708617E-05 -8.944426E-03 -2.504059E-05

 displacements (vx,vy,vz) for set TIPMARKER and time  0.1200000E+01

         2  3.147649E-05 -1.153246E-02 -3.291727E-05

 displacements (vx,vy,vz) for set TIPMARKER and time  0.1300000E+01

         2  3.591603E-05 -1.451664E-02 -4.227492E-05

 displacements (vx,vy,vz) for set TIPMARKER and time  0.1400000E+01

         2  4.032852E-05 -1.791409E-02 -5.325974E-05

 displacements (vx,vy,vz) for set TIPMARKER and time  0.1500000E+01

         2  4.464642E-05 -2.173002E-02 -6.605683E-05

 displacements (vx,vy,vz) for set TIPMARKER and time  0.1600000E+01

         2  4.879555E-05 -2.593263E-02 -8.079933E-05

 displacements (vx,vy,vz) for set TIPMARKER and time  0.1700000E+01

         2  5.271119E-05 -3.045559E-02 -9.751467E-05

 displacements (vx,vy,vz) for set TIPMARKER and time  0.1800000E+01

         2  5.632447E-05 -3.520966E-02 -1.161252E-04

 displacements (vx,vy,vz) for set TIPMARKER and time  0.1900000E+01

         2  5.957761E-05 -4.010294E-02 -1.364960E-04

 displacements (vx,vy,vz) for set TIPMARKER and time  0.2000000E+01

         2  6.241192E-05 -4.505474E-02 -1.585003E-04

 displacements (vx,vy,vz) for set TIPMARKER and time  0.2100000E+01

         2  6.478120E-05 -4.998115E-02 -1.820105E-04

 displacements (vx,vy,vz) for set TIPMARKER and time  0.2200000E+01

         2  6.664022E-05 -5.477074E-02 -2.068182E-04

 displacements (vx,vy,vz) for set TIPMARKER and time  0.2350000E+01

         2  6.818823E-05 -6.135941E-02 -2.454400E-04

 displacements (vx,vy,vz) for set TIPMARKER and time  0.2575000E+01

         2  6.750573E-05 -6.895035E-02 -3.020610E-04

 displacements (vx,vy,vz) for set TIPMARKER and time  0.2912500E+01

         2  7.121136E-05 -7.285009E-02 -3.707508E-04

 displacements (vx,vy,vz) for set TIPMARKER and time  0.3250000E+01

         2  8.074113E-05 -6.594048E-02 -4.031900E-04

 displacements (vx,vy,vz) for set TIPMARKER and time  0.3587500E+01

         2  9.418043E-05 -4.816993E-02 -3.834567E-04

 displacements (vx,vy,vz) for set TIPMARKER and time  0.3925000E+01

         2  1.089876E-04 -2.259282E-02 -3.104017E-04

 displacements (vx,vy,vz) for set TIPMARKER and time  0.4262500E+01

         2  1.224302E-04  5.219677E-03 -2.011376E-04

 displacements (vx,vy,vz) for set TIPMARKER and time  0.4600000E+01

         2  1.320235E-04  2.885966E-02 -8.453004E-05

 displacements (vx,vy,vz) for set TIPMARKER and time  0.4937500E+01

         2  1.359140E-04  4.253395E-02  4.517003E-06

 displacements (vx,vy,vz) for set TIPMARKER and time  0.5275000E+01

         2  1.342007E-04  4.269665E-02  3.759452E-05

 displacements (vx,vy,vz) for set TIPMARKER and time  0.5612500E+01

         2  1.392789E-04  2.924558E-02  3.766099E-06

 displacements (vx,vy,vz) for set TIPMARKER and time  0.5950000E+01

         2  1.499766E-04  5.393018E-03 -8.816244E-05

 displacements (vx,vy,vz) for set TIPMARKER and time  0.6287500E+01

         2  1.641744E-04 -2.313663E-02 -2.115947E-04

 displacements (vx,vy,vz) for set TIPMARKER and time  0.6625000E+01

         2  1.792084E-04 -4.948363E-02 -3.326225E-04

 displacements (vx,vy,vz) for set TIPMARKER and time  0.6962500E+01

         2  1.922966E-04 -6.765777E-02 -4.214098E-04

 displacements (vx,vy,vz) for set TIPMARKER and time  0.7300000E+01

         2  2.010051E-04 -7.405931E-02 -4.579721E-04

 displacements (vx,vy,vz) for set TIPMARKER and time  0.7637500E+01

         2  2.035809E-04 -6.826312E-02 -4.371976E-04

 displacements (vx,vy,vz) for set TIPMARKER and time  0.7975000E+01

         2  2.033609E-04 -5.307046E-02 -3.684959E-04

 displacements (vx,vy,vz) for set TIPMARKER and time  0.8312500E+01

         2  2.095707E-04 -3.328088E-02 -2.705726E-04

 displacements (vx,vy,vz) for set TIPMARKER and time  0.8650000E+01

         2  2.208803E-04 -1.394656E-02 -1.670783E-04

 displacements (vx,vy,vz) for set TIPMARKER and time  0.8987500E+01

         2  2.351268E-04  1.033784E-03 -8.246576E-05

 displacements (vx,vy,vz) for set TIPMARKER and time  0.9325000E+01

         2  2.496997E-04  9.882000E-03 -3.866364E-05

 displacements (vx,vy,vz) for set TIPMARKER and time  0.9662500E+01

         2  2.619028E-04  1.299416E-02 -4.886166E-05

 displacements (vx,vy,vz) for set TIPMARKER and time  0.1000000E+02

         2  2.694231E-04  1.214025E-02 -1.094981E-04

 displacements (vx,vy,vz) for set TIPMARKER and time  0.1033750E+02

         2  2.706603E-04  9.484038E-03 -1.985891E-04

 displacements (vx,vy,vz) for set TIPMARKER and time  0.1067500E+02

         2  2.721672E-04  6.565202E-03 -2.830137E-04

 displacements (vx,vy,vz) for set TIPMARKER and time  0.1101250E+02

         2  2.798840E-04  3.606722E-03 -3.309353E-04

 displacements (vx,vy,vz) for set TIPMARKER and time  0.1135000E+02

         2  2.922057E-04 -3.457894E-04 -3.244510E-04

 displacements (vx,vy,vz) for set TIPMARKER and time  0.1168750E+02

         2  3.067871E-04 -6.771253E-03 -2.679437E-04

 displacements (vx,vy,vz) for set TIPMARKER and time  0.1202500E+02

         2  3.209640E-04 -1.674672E-02 -1.872504E-04

 displacements (vx,vy,vz) for set TIPMARKER and time  0.1236250E+02

         2  3.321260E-04 -2.995195E-02 -1.191662E-04

 displacements (vx,vy,vz) for set TIPMARKER and time  0.1270000E+02

         2  3.381632E-04 -4.425837E-02 -9.735489E-05

 displacements (vx,vy,vz) for set TIPMARKER and time  0.1303750E+02

         2  3.377607E-04 -5.608486E-02 -1.375741E-04

 displacements (vx,vy,vz) for set TIPMARKER and time  0.1337500E+02

         2  3.407341E-04 -6.137452E-02 -2.297777E-04

 displacements (vx,vy,vz) for set TIPMARKER and time  0.1371250E+02

         2  3.497626E-04 -5.705733E-02 -3.402511E-04

 displacements (vx,vy,vz) for set TIPMARKER and time  0.1405000E+02

         2  3.629889E-04 -4.234338E-02 -4.232609E-04

 displacements (vx,vy,vz) for set TIPMARKER and time  0.1438750E+02

         2  3.778619E-04 -1.925509E-02 -4.409462E-04

 displacements (vx,vy,vz) for set TIPMARKER and time  0.1472500E+02

         2  3.916000E-04  7.612309E-03 -3.793616E-04

 displacements (vx,vy,vz) for set TIPMARKER and time  0.1506250E+02

         2  4.016406E-04  3.212568E-02 -2.541346E-04

 displacements (vx,vy,vz) for set TIPMARKER and time  0.1540000E+02

         2  4.060627E-04  4.824882E-02 -1.067782E-04

 displacements (vx,vy,vz) for set TIPMARKER and time  0.1573750E+02

         2  4.038516E-04  5.171263E-02  1.226631E-05

 displacements (vx,vy,vz) for set TIPMARKER and time  0.1607500E+02

         2  4.080276E-04  4.129704E-02  6.245417E-05

 displacements (vx,vy,vz) for set TIPMARKER and time  0.1641250E+02

         2  4.180461E-04  1.929386E-02  2.743032E-05

 displacements (vx,vy,vz) for set TIPMARKER and time  0.1675000E+02

         2  4.318996E-04 -9.102288E-03 -7.888506E-05

 displacements (vx,vy,vz) for set TIPMARKER and time  0.1708750E+02

         2  4.469570E-04 -3.717189E-02 -2.213673E-04

 displacements (vx,vy,vz) for set TIPMARKER and time  0.1742500E+02

         2  4.603981E-04 -5.842195E-02 -3.560837E-04

 displacements (vx,vy,vz) for set TIPMARKER and time  0.1776250E+02

         2  4.696903E-04 -6.832573E-02 -4.420164E-04

 displacements (vx,vy,vz) for set TIPMARKER and time  0.1810000E+02

         2  4.729692E-04 -6.546909E-02 -4.548037E-04

 displacements (vx,vy,vz) for set TIPMARKER and time  0.1843750E+02

         2  4.719386E-04 -5.174532E-02 -3.915771E-04

 displacements (vx,vy,vz) for set TIPMARKER and time  0.1877500E+02

         2  4.773821E-04 -3.156564E-02 -2.701507E-04

 displacements (vx,vy,vz) for set TIPMARKER and time  0.1911250E+02

         2  4.880894E-04 -1.029464E-02 -1.251545E-04

 displacements (vx,vy,vz) for set TIPMARKER and time  0.1945000E+02

         2  5.020010E-04  7.424710E-03  2.422536E-06

 displacements (vx,vy,vz) for set TIPMARKER and time  0.1978750E+02

         2  5.165654E-04  1.881066E-02  7.417350E-05

 displacements (vx,vy,vz) for set TIPMARKER and time  0.2012500E+02

         2  5.290941E-04  2.334003E-02  6.514780E-05

 displacements (vx,vy,vz) for set TIPMARKER and time  0.2046250E+02

         2  5.372119E-04  2.237072E-02 -2.282195E-05

 displacements (vx,vy,vz) for set TIPMARKER and time  0.2080000E+02

         2  5.392028E-04  1.819306E-02 -1.590006E-04

 displacements (vx,vy,vz) for set TIPMARKER and time  0.2113750E+02

         2  5.399911E-04  1.295455E-02 -2.938153E-04

 displacements (vx,vy,vz) for set TIPMARKER and time  0.2147500E+02

         2  5.470752E-04  7.819322E-03 -3.763758E-04

 displacements (vx,vy,vz) for set TIPMARKER and time  0.2181250E+02

         2  5.589287E-04  2.660035E-03 -3.750670E-04

 displacements (vx,vy,vz) for set TIPMARKER and time  0.2215000E+02

         2  5.732658E-04 -3.569283E-03 -2.907205E-04

 displacements (vx,vy,vz) for set TIPMARKER and time  0.2248750E+02

         2  5.874569E-04 -1.200756E-02 -1.565480E-04

 displacements (vx,vy,vz) for set TIPMARKER and time  0.2282500E+02

         2  5.988929E-04 -2.296420E-02 -2.569886E-05

 displacements (vx,vy,vz) for set TIPMARKER and time  0.2316250E+02

         2  6.054286E-04 -3.525859E-02  4.869947E-05

 displacements (vx,vy,vz) for set TIPMARKER and time  0.2350000E+02

         2  6.056671E-04 -4.619255E-02  3.450964E-05

 displacements (vx,vy,vz) for set TIPMARKER and time  0.2383750E+02

         2  6.078658E-04 -5.224666E-02 -6.671384E-05

 displacements (vx,vy,vz) for set TIPMARKER and time  0.2417500E+02

         2  6.163068E-04 -5.027127E-02 -2.184533E-04

 displacements (vx,vy,vz) for set TIPMARKER and time  0.2451250E+02

         2  6.292116E-04 -3.875876E-02 -3.616074E-04

 displacements (vx,vy,vz) for set TIPMARKER and time  0.2485000E+02

         2  6.440569E-04 -1.868771E-02 -4.392218E-04

 displacements (vx,vy,vz) for set TIPMARKER and time  0.2518750E+02

         2  6.580432E-04  6.383393E-03 -4.191085E-04

 displacements (vx,vy,vz) for set TIPMARKER and time  0.2552500E+02

         2  6.685403E-04  3.099484E-02 -3.057643E-04

 displacements (vx,vy,vz) for set TIPMARKER and time  0.2586250E+02

         2  6.735458E-04  4.912770E-02 -1.403446E-04

 displacements (vx,vy,vz) for set TIPMARKER and time  0.2620000E+02

         2  6.719494E-04  5.590082E-02  1.687045E-05

 displacements (vx,vy,vz) for set TIPMARKER and time  0.2653750E+02

         2  6.752757E-04  4.906732E-02  1.102689E-04

 displacements (vx,vy,vz) for set TIPMARKER and time  0.2687500E+02

         2  6.846236E-04  2.978799E-02  1.091654E-04

 displacements (vx,vy,vz) for set TIPMARKER and time  0.2721250E+02

         2  6.980969E-04  2.410933E-03  1.860690E-05

 displacements (vx,vy,vz) for set TIPMARKER and time  0.2755000E+02

         2  7.131066E-04 -2.666324E-02 -1.274005E-04

 displacements (vx,vy,vz) for set TIPMARKER and time  0.2788750E+02

         2  7.268185E-04 -5.066321E-02 -2.798014E-04

 displacements (vx,vy,vz) for set TIPMARKER and time  0.2822500E+02

         2  7.366257E-04 -6.422750E-02 -3.890455E-04

 displacements (vx,vy,vz) for set TIPMARKER and time  0.2856250E+02

         2  7.405700E-04 -6.481145E-02 -4.217895E-04

 displacements (vx,vy,vz) for set TIPMARKER and time  0.2890000E+02

         2  7.387286E-04 -5.326844E-02 -3.685871E-04

 displacements (vx,vy,vz) for set TIPMARKER and time  0.2923750E+02

         2  7.434266E-04 -3.339205E-02 -2.453156E-04

 displacements (vx,vy,vz) for set TIPMARKER and time  0.2957500E+02

         2  7.535574E-04 -1.057897E-02 -8.919594E-05

 displacements (vx,vy,vz) for set TIPMARKER and time  0.2991250E+02

         2  7.671491E-04  9.869017E-03  5.317083E-05

 displacements (vx,vy,vz) for set TIPMARKER and time  0.3025000E+02

         2  7.816974E-04  2.416545E-02  1.365445E-04

 displacements (vx,vy,vz) for set TIPMARKER and time  0.3058750E+02

         2  7.945163E-04  3.077923E-02  1.304255E-04

 displacements (vx,vy,vz) for set TIPMARKER and time  0.3092500E+02

         2  8.031739E-04  3.039460E-02  3.419240E-05

 displacements (vx,vy,vz) for set TIPMARKER and time  0.3126250E+02

         2  8.058578E-04  2.520397E-02 -1.199004E-04

 displacements (vx,vy,vz) for set TIPMARKER and time  0.3160000E+02

         2  8.058686E-04  1.783403E-02 -2.760897E-04

 displacements (vx,vy,vz) for set TIPMARKER and time  0.3193750E+02

         2  8.122679E-04  1.031043E-02 -3.749570E-04

 displacements (vx,vy,vz) for set TIPMARKER and time  0.3227500E+02

         2  8.236221E-04  3.439568E-03 -3.780943E-04

 displacements (vx,vy,vz) for set TIPMARKER and time  0.3261250E+02

         2  8.377108E-04 -3.175558E-03 -2.833540E-04

 displacements (vx,vy,vz) for set TIPMARKER and time  0.3295000E+02

         2  8.519343E-04 -1.054271E-02 -1.263812E-04

 displacements (vx,vy,vz) for set TIPMARKER and time  0.3328750E+02

         2  8.636749E-04 -1.939648E-02  3.251848E-05

 displacements (vx,vy,vz) for set TIPMARKER and time  0.3362500E+02

         2  8.707347E-04 -2.940445E-02  1.319368E-04

 displacements (vx,vy,vz) for set TIPMARKER and time  0.3396250E+02

         2  8.716254E-04 -3.883140E-02  1.323394E-04

 displacements (vx,vy,vz) for set TIPMARKER and time  0.3430000E+02

         2  8.730246E-04 -4.486396E-02  3.072698E-05

 displacements (vx,vy,vz) for set TIPMARKER and time  0.3463750E+02

         2  8.808138E-04 -4.452852E-02 -1.363621E-04

 displacements (vx,vy,vz) for set TIPMARKER and time  0.3497500E+02

         2  8.933090E-04 -3.587155E-02 -3.056136E-04

 displacements (vx,vy,vz) for set TIPMARKER and time  0.3531250E+02

         2  9.080385E-04 -1.894687E-02 -4.125292E-04

 displacements (vx,vy,vz) for set TIPMARKER and time  0.3565000E+02

         2  9.222077E-04  3.760493E-03 -4.163442E-04

 displacements (vx,vy,vz) for set TIPMARKER and time  0.3598750E+02

         2  9.331360E-04  2.764775E-02 -3.152742E-04

 displacements (vx,vy,vz) for set TIPMARKER and time  0.3632500E+02

         2  9.387387E-04  4.703181E-02 -1.483422E-04

 displacements (vx,vy,vz) for set TIPMARKER and time  0.3666250E+02

         2  9.377988E-04  5.670138E-02  2.133081E-05

 displacements (vx,vy,vz) for set TIPMARKER and time  0.3700000E+02

         2  9.403074E-04  5.352195E-02  1.318390E-04

 displacements (vx,vy,vz) for set TIPMARKER and time  0.3733750E+02

         2  9.489920E-04  3.751204E-02  1.461027E-04

 displacements (vx,vy,vz) for set TIPMARKER and time  0.3767500E+02

         2  9.620615E-04  1.198895E-02  6.506279E-05

 displacements (vx,vy,vz) for set TIPMARKER and time  0.3801250E+02

         2  9.769762E-04 -1.724126E-02 -7.806238E-05

 displacements (vx,vy,vz) for set TIPMARKER and time  0.3835000E+02

         2  9.909003E-04 -4.337931E-02 -2.324881E-04

 displacements (vx,vy,vz) for set TIPMARKER and time  0.3868750E+02

         2  1.001167E-03 -6.041645E-02 -3.461133E-04

 displacements (vx,vy,vz) for set TIPMARKER and time  0.3902500E+02

         2  1.005737E-03 -6.473200E-02 -3.834534E-04

 displacements (vx,vy,vz) for set TIPMARKER and time  0.3936250E+02

         2  1.003489E-03 -5.602306E-02 -3.339011E-04

 displacements (vx,vy,vz) for set TIPMARKER and time  0.3970000E+02

         2  1.007434E-03 -3.724335E-02 -2.133582E-04

 displacements (vx,vy,vz) for set TIPMARKER and time  0.4003750E+02

         2  1.016987E-03 -1.355081E-02 -5.952511E-05

 displacements (vx,vy,vz) for set TIPMARKER and time  0.4037500E+02

         2  1.030257E-03  9.328538E-03  8.070595E-05

 displacements (vx,vy,vz) for set TIPMARKER and time  0.4071250E+02

         2  1.044778E-03  2.669691E-02  1.619458E-04

 displacements (vx,vy,vz) for set TIPMARKER and time  0.4105000E+02

         2  1.057864E-03  3.595653E-02  1.536563E-04

 displacements (vx,vy,vz) for set TIPMARKER and time  0.4138750E+02

         2  1.067028E-03  3.693253E-02  5.499776E-05

 displacements (vx,vy,vz) for set TIPMARKER and time  0.4172500E+02

         2  1.070368E-03  3.145004E-02 -1.021467E-04

 displacements (vx,vy,vz) for set TIPMARKER and time  0.4206250E+02

         2  1.069563E-03  2.237321E-02 -2.611644E-04

 displacements (vx,vy,vz) for set TIPMARKER and time  0.4240000E+02

         2  1.075234E-03  1.246147E-02 -3.608572E-04

 displacements (vx,vy,vz) for set TIPMARKER and time  0.4273750E+02

         2  1.086048E-03  3.465793E-03 -3.614350E-04

 displacements (vx,vy,vz) for set TIPMARKER and time  0.4307500E+02

         2  1.099862E-03 -4.203390E-03 -2.602132E-04

 displacements (vx,vy,vz) for set TIPMARKER and time  0.4341250E+02

         2  1.114107E-03 -1.117284E-02 -9.423941E-05

 displacements (vx,vy,vz) for set TIPMARKER and time  0.4375000E+02

         2  1.126157E-03 -1.835760E-02  7.330199E-05

 displacements (vx,vy,vz) for set TIPMARKER and time  0.4408750E+02

         2  1.133753E-03 -2.610177E-02  1.788115E-04

 displacements (vx,vy,vz) for set TIPMARKER and time  0.4442500E+02

         2  1.135309E-03 -3.359859E-02  1.814148E-04

 displacements (vx,vy,vz) for set TIPMARKER and time  0.4476250E+02

         2  1.135902E-03 -3.887296E-02  7.804929E-05

 displacements (vx,vy,vz) for set TIPMARKER and time  0.4510000E+02

         2  1.143003E-03 -3.937430E-02 -9.385120E-05

 displacements (vx,vy,vz) for set TIPMARKER and time  0.4543750E+02

         2  1.155028E-03 -3.298227E-02 -2.701883E-04

 displacements (vx,vy,vz) for set TIPMARKER and time  0.4577500E+02

         2  1.169570E-03 -1.904256E-02 -3.849299E-04

 displacements (vx,vy,vz) for set TIPMARKER and time  0.4611250E+02

         2  1.183857E-03  9.715086E-04 -3.955817E-04

 displacements (vx,vy,vz) for set TIPMARKER and time  0.4645000E+02

         2  1.195176E-03  2.342828E-02 -2.993240E-04

 displacements (vx,vy,vz) for set TIPMARKER and time  0.4678750E+02

         2  1.201366E-03  4.323075E-02 -1.343981E-04

 displacements (vx,vy,vz) for set TIPMARKER and time  0.4712500E+02

         2  1.201101E-03  5.514310E-02  3.544895E-05

 displacements (vx,vy,vz) for set TIPMARKER and time  0.4746250E+02

         2  1.202809E-03  5.538043E-02  1.465601E-04

 displacements (vx,vy,vz) for set TIPMARKER and time  0.4780000E+02

         2  1.210834E-03  4.289958E-02  1.609351E-04

 displacements (vx,vy,vz) for set TIPMARKER and time  0.4813750E+02

         2  1.223484E-03  1.990106E-02  7.968759E-05

 displacements (vx,vy,vz) for set TIPMARKER and time  0.4847500E+02

         2  1.238272E-03 -8.624420E-03 -6.258447E-05

 displacements (vx,vy,vz) for set TIPMARKER and time  0.4881250E+02

         2  1.252366E-03 -3.613231E-02 -2.134291E-04

 displacements (vx,vy,vz) for set TIPMARKER and time  0.4915000E+02

         2  1.263051E-03 -5.621352E-02 -3.206659E-04

 displacements (vx,vy,vz) for set TIPMARKER and time  0.4948750E+02

         2  1.268212E-03 -6.430820E-02 -3.505038E-04

 displacements (vx,vy,vz) for set TIPMARKER and time  0.4982500E+02

         2  1.266628E-03 -5.893749E-02 -2.955196E-04

 displacements (vx,vy,vz) for set TIPMARKER and time  0.5016250E+02

         2  1.269799E-03 -4.203621E-02 -1.747915E-04

 displacements (vx,vy,vz) for set TIPMARKER and time  0.5050000E+02

         2  1.278756E-03 -1.825066E-02 -2.720928E-05

 displacements (vx,vy,vz) for set TIPMARKER and time  0.5083750E+02

         2  1.291689E-03  6.539095E-03  1.016938E-04

 displacements (vx,vy,vz) for set TIPMARKER and time  0.5117500E+02

         2  1.306168E-03  2.690163E-02  1.702516E-04

 displacements (vx,vy,vz) for set TIPMARKER and time  0.5151250E+02

         2  1.319503E-03  3.919505E-02  1.523592E-04

 displacements (vx,vy,vz) for set TIPMARKER and time  0.5185000E+02

         2  1.329150E-03  4.224835E-02  4.991699E-05

 displacements (vx,vy,vz) for set TIPMARKER and time  0.5218750E+02

         2  1.333126E-03  3.727228E-02 -1.048788E-04

 displacements (vx,vy,vz) for set TIPMARKER and time  0.5252500E+02

         2  1.331483E-03  2.709374E-02 -2.565459E-04

 displacements (vx,vy,vz) for set TIPMARKER and time  0.5286250E+02

         2  1.336390E-03  1.500354E-02 -3.462214E-04

 displacements (vx,vy,vz) for set TIPMARKER and time  0.5320000E+02

         2  1.346625E-03  3.638341E-03 -3.366016E-04

 displacements (vx,vy,vz) for set TIPMARKER and time  0.5353750E+02

         2  1.360126E-03 -5.687368E-03 -2.270195E-04

 displacements (vx,vy,vz) for set TIPMARKER and time  0.5387500E+02

         2  1.374367E-03 -1.300026E-02 -5.674662E-05

 displacements (vx,vy,vz) for set TIPMARKER and time  0.5421250E+02

         2  1.386714E-03 -1.912716E-02  1.096846E-04

 displacements (vx,vy,vz) for set TIPMARKER and time  0.5455000E+02

         2  1.394844E-03 -2.486537E-02  2.094705E-04

 displacements (vx,vy,vz) for set TIPMARKER and time  0.5488750E+02

         2  1.397074E-03 -3.023424E-02  2.040729E-04

 displacements (vx,vy,vz) for set TIPMARKER and time  0.5522500E+02

         2  1.396863E-03 -3.415202E-02  9.388803E-05

 displacements (vx,vy,vz) for set TIPMARKER and time  0.5556250E+02

         2  1.403253E-03 -3.469424E-02 -8.066795E-05

 displacements (vx,vy,vz) for set TIPMARKER and time  0.5590000E+02

         2  1.414764E-03 -2.985248E-02 -2.550881E-04

 displacements (vx,vy,vz) for set TIPMARKER and time  0.5623750E+02

         2  1.429063E-03 -1.851542E-02 -3.646313E-04

 displacements (vx,vy,vz) for set TIPMARKER and time  0.5657500E+02

         2  1.443410E-03 -1.284489E-03 -3.691365E-04

 displacements (vx,vy,vz) for set TIPMARKER and time  0.5691250E+02

         2  1.455077E-03  1.920476E-02 -2.688092E-04

 displacements (vx,vy,vz) for set TIPMARKER and time  0.5725000E+02

         2  1.461832E-03  3.862963E-02 -1.036238E-04

 displacements (vx,vy,vz) for set TIPMARKER and time  0.5758750E+02

         2  1.462244E-03  5.201332E-02  6.205683E-05

 displacements (vx,vy,vz) for set TIPMARKER and time  0.5792500E+02

         2  1.463159E-03  5.519688E-02  1.648166E-04

 displacements (vx,vy,vz) for set TIPMARKER and time  0.5826250E+02

         2  1.470520E-03  4.624346E-02  1.687174E-04

 displacements (vx,vy,vz) for set TIPMARKER and time  0.5860000E+02

         2  1.482734E-03  2.623793E-02  7.826810E-05

 displacements (vx,vy,vz) for set TIPMARKER and time  0.5893750E+02

         2  1.497368E-03 -7.998057E-04 -6.816644E-05

 displacements (vx,vy,vz) for set TIPMARKER and time  0.5927500E+02

         2  1.511601E-03 -2.883862E-02 -2.154450E-04

 displacements (vx,vy,vz) for set TIPMARKER and time  0.5961250E+02

         2  1.522672E-03 -5.134994E-02 -3.116464E-04

 displacements (vx,vy,vz) for set TIPMARKER and time  0.5995000E+02

         2  1.528397E-03 -6.303983E-02 -3.263965E-04

 displacements (vx,vy,vz) for set TIPMARKER and time  0.6028750E+02

         2  1.527459E-03 -6.131260E-02 -2.579994E-04

 displacements (vx,vy,vz) for set TIPMARKER and time  0.6062500E+02

         2  1.529831E-03 -4.697672E-02 -1.313513E-04

 displacements (vx,vy,vz) for set TIPMARKER and time  0.6096250E+02

         2  1.538164E-03 -2.392561E-02  1.158474E-05

 displacements (vx,vy,vz) for set TIPMARKER and time  0.6130000E+02

         2  1.550737E-03  2.094134E-03  1.263600E-04

 displacements (vx,vy,vz) for set TIPMARKER and time  0.6163750E+02

         2  1.565150E-03  2.514835E-02  1.764138E-04

 displacements (vx,vy,vz) for set TIPMARKER and time  0.6197500E+02

         2  1.578712E-03  4.065054E-02  1.425086E-04

 displacements (vx,vy,vz) for set TIPMARKER and time  0.6231250E+02

         2  1.588825E-03  4.636910E-02  3.197648E-05

 displacements (vx,vy,vz) for set TIPMARKER and time  0.6265000E+02

         2  1.593423E-03  4.269307E-02 -1.209328E-04

 displacements (vx,vy,vz) for set TIPMARKER and time  0.6298750E+02

         2  1.591300E-03  3.213613E-02 -2.620795E-04

 displacements (vx,vy,vz) for set TIPMARKER and time  0.6332500E+02

         2  1.595419E-03  1.827336E-02 -3.364901E-04

 displacements (vx,vy,vz) for set TIPMARKER and time  0.6366250E+02

         2  1.605039E-03  4.495822E-03 -3.114882E-04

 displacements (vx,vy,vz) for set TIPMARKER and time  0.6400000E+02

         2  1.618191E-03 -6.950936E-03 -1.904446E-04

 displacements (vx,vy,vz) for set TIPMARKER and time  0.6433750E+02

         2  1.632393E-03 -1.532282E-02 -1.579535E-05

 displacements (vx,vy,vz) for set TIPMARKER and time  0.6467500E+02

         2  1.645010E-03 -2.110232E-02  1.465884E-04

 displacements (vx,vy,vz) for set TIPMARKER and time  0.6501250E+02

         2  1.653662E-03 -2.528477E-02  2.353494E-04

 displacements (vx,vy,vz) for set TIPMARKER and time  0.6535000E+02

         2  1.656566E-03 -2.855118E-02  2.158464E-04

 displacements (vx,vy,vz) for set TIPMARKER and time  0.6568750E+02

         2  1.655553E-03 -3.069776E-02  9.408085E-05

 displacements (vx,vy,vz) for set TIPMARKER and time  0.6602500E+02

         2  1.661218E-03 -3.056575E-02 -8.485268E-05

 displacements (vx,vy,vz) for set TIPMARKER and time  0.6636250E+02

         2  1.672185E-03 -2.650841E-02 -2.550676E-04

 displacements (vx,vy,vz) for set TIPMARKER and time  0.6670000E+02

         2  1.686199E-03 -1.722799E-02 -3.534875E-04

 displacements (vx,vy,vz) for set TIPMARKER and time  0.6703750E+02

         2  1.700558E-03 -2.647369E-03 -3.443227E-04

 displacements (vx,vy,vz) for set TIPMARKER and time  0.6737500E+02

         2  1.712529E-03  1.554105E-02 -2.331406E-04

 displacements (vx,vy,vz) for set TIPMARKER and time  0.6771250E+02

         2  1.719823E-03  3.389874E-02 -6.355276E-05

 displacements (vx,vy,vz) for set TIPMARKER and time  0.6805000E+02

         2  1.720907E-03  4.794921E-02  9.827538E-05

 displacements (vx,vy,vz) for set TIPMARKER and time  0.6838750E+02

         2  1.721026E-03  5.344628E-02  1.896303E-04

 displacements (vx,vy,vz) for set TIPMARKER and time  0.6872500E+02

         2  1.727712E-03  4.778364E-02  1.779121E-04

 displacements (vx,vy,vz) for set TIPMARKER and time  0.6906250E+02

         2  1.739470E-03  3.101511E-02  7.231097E-05

 displacements (vx,vy,vz) for set TIPMARKER and time  0.6940000E+02

         2  1.753924E-03  6.111988E-03 -8.323772E-05

 displacements (vx,vy,vz) for set TIPMARKER and time  0.6973750E+02

         2  1.768265E-03 -2.162314E-02 -2.296144E-04

 displacements (vx,vy,vz) for set TIPMARKER and time  0.7007500E+02

         2  1.779699E-03 -4.582393E-02 -3.148168E-04

 displacements (vx,vy,vz) for set TIPMARKER and time  0.7041250E+02

         2  1.785968E-03 -6.071392E-02 -3.117730E-04

 displacements (vx,vy,vz) for set TIPMARKER and time  0.7075000E+02

         2  1.785664E-03 -6.271546E-02 -2.253382E-04

 displacements (vx,vy,vz) for set TIPMARKER and time  0.7108750E+02

         2  1.787215E-03 -5.147983E-02 -8.793326E-05

 displacements (vx,vy,vz) for set TIPMARKER and time  0.7142500E+02

         2  1.794894E-03 -2.995897E-02  5.394227E-05

 displacements (vx,vy,vz) for set TIPMARKER and time  0.7176250E+02

         2  1.807073E-03 -3.489374E-03  1.557610E-04

 displacements (vx,vy,vz) for set TIPMARKER and time  0.7210000E+02

         2  1.821391E-03  2.175888E-02  1.857327E-04

 displacements (vx,vy,vz) for set TIPMARKER and time  0.7243750E+02

         2  1.835154E-03  4.042186E-02  1.324771E-04

 displacements (vx,vy,vz) for set TIPMARKER and time  0.7277500E+02

         2  1.845714E-03  4.921803E-02  1.022975E-05

 displacements (vx,vy,vz) for set TIPMARKER and time  0.7311250E+02

         2  1.850922E-03  4.756748E-02 -1.432627E-04

 displacements (vx,vy,vz) for set TIPMARKER and time  0.7345000E+02

         2  1.849463E-03  3.741616E-02 -2.746794E-04

 displacements (vx,vy,vz) for set TIPMARKER and time  0.7378750E+02

         2  1.852781E-03  2.235131E-02 -3.331974E-04

 displacements (vx,vy,vz) for set TIPMARKER and time  0.7412500E+02

         2  1.861759E-03  6.327532E-03 -2.914206E-04

 displacements (vx,vy,vz) for set TIPMARKER and time  0.7446250E+02

         2  1.874528E-03 -7.524366E-03 -1.576389E-04

 displacements (vx,vy,vz) for set TIPMARKER and time  0.7480000E+02

         2  1.888654E-03 -1.758165E-02  2.229169E-05

 displacements (vx,vy,vz) for set TIPMARKER and time  0.7513750E+02

         2  1.901510E-03 -2.375771E-02  1.811167E-04

 displacements (vx,vy,vz) for set TIPMARKER and time  0.7547500E+02

         2  1.910658E-03 -2.698070E-02  2.584852E-04

 displacements (vx,vy,vz) for set TIPMARKER and time  0.7581250E+02

         2  1.914229E-03 -2.838117E-02  2.235839E-04

 displacements (vx,vy,vz) for set TIPMARKER and time  0.7615000E+02

         2  1.912412E-03 -2.854661E-02  8.844987E-05

 displacements (vx,vy,vz) for set TIPMARKER and time  0.7648750E+02

         2  1.917340E-03 -2.715472E-02 -9.662677E-05

 displacements (vx,vy,vz) for set TIPMARKER and time  0.7682500E+02
