
 displacements (vx,vy,vz) for set TIPMARKER and time  0.1000000E+00

         2  2.794233E-07 -3.088597E-05 -6.402402E-08

 displacements (vx,vy,vz) for set TIPMARKER and time  0.2000000E+00

         2  1.447559E-06 -1.509525E-04 -3.509218E-07

 displacements (vx,vy,vz) for set TIPMARKER and time  0.3000000E+00

         2  3.445283E-06 -4.141322E-04 -1.039612E-06

 displacements (vx,vy,vz) for set TIPMARKER and time  0.4000000E+00

         2  6.184853E-06 -8.613362E-04 -2.277738E-06

 displacements (vx,vy,vz) for set TIPMARKER and time  0.5000000E+00

         2  9.554886E-06 -1.512850E-03 -4.131443E-06

 displacements (vx,vy,vz) for set TIPMARKER and time  0.6000000E+00

         2  1.342048E-05 -2.382804E-03 -6.637649E-06

 displacements (vx,vy,vz) for set TIPMARKER and time  0.7000000E+00

         2  1.763414E-05 -3.517686E-03 -9.947137E-06

 displacements (vx,vy,vz) for set TIPMARKER and time  0.8000000E+00

         2  2.203309E-05 -5.002872E-03 -1.428079E-05

 displacements (vx,vy,vz) for set TIPMARKER and time  0.9000000E+00

         2  2.645350E-05 -6.912894E-03 -1.989927E-05

 displacements (vx,vy,vz) for set TIPMARKER and time  0.1000000E+01

         2  3.072603E-05 -9.275196E-03 -2.700763E-05

 displacements (vx,vy,vz) for set TIPMARKER and time  0.1100000E+01

         2  3.468971E-05 -1.207490E-02 -3.566539E-05

 displacements (vx,vy,vz) for set TIPMARKER and time  0.1200000E+01

         2  3.818944E-05 -1.526628E-02 -4.584984E-05

 displacements (vx,vy,vz) for set TIPMARKER and time  0.1225000E+01

         2  3.903048E-05 -1.612015E-02 -4.863036E-05

 displacements (vx,vy,vz) for set TIPMARKER and time  0.1250000E+01

         2  3.983463E-05 -1.699551E-02 -5.150603E-05

 displacements (vx,vy,vz) for set TIPMARKER and time  0.1287500E+01

         2  4.095283E-05 -1.834919E-02 -5.599891E-05

 displacements (vx,vy,vz) for set TIPMARKER and time  0.1325000E+01

         2  4.197737E-05 -1.975185E-02 -6.070569E-05

 displacements (vx,vy,vz) for set TIPMARKER and time  0.1362500E+01

         2  4.290123E-05 -2.120246E-02 -6.562281E-05

 displacements (vx,vy,vz) for set TIPMARKER and time  0.1376562E+01

         2  4.323341E-05 -2.175853E-02 -6.752085E-05

 displacements (vx,vy,vz) for set TIPMARKER and time  0.1390625E+01

         2  4.355058E-05 -2.232104E-02 -6.944944E-05

 displacements (vx,vy,vz) for set TIPMARKER and time  0.1395898E+01

         2  4.366674E-05 -2.253362E-02 -7.018066E-05

 displacements (vx,vy,vz) for set TIPMARKER and time  0.1401172E+01

         2  4.378256E-05 -2.274709E-02 -7.091632E-05

 displacements (vx,vy,vz) for set TIPMARKER and time  0.1409082E+01

         2  4.394875E-05 -2.306891E-02 -7.202833E-05

 displacements (vx,vy,vz) for set TIPMARKER and time  0.1420947E+01

         2  4.418906E-05 -2.355517E-02 -7.371561E-05

 displacements (vx,vy,vz) for set TIPMARKER and time  0.1438745E+01

         2  4.452341E-05 -2.429212E-02 -7.628973E-05

 displacements (vx,vy,vz) for set TIPMARKER and time  0.1465442E+01

         2  4.496724E-05 -2.541367E-02 -8.024530E-05

 displacements (vx,vy,vz) for set TIPMARKER and time  0.1505487E+01

         2  4.549891E-05 -2.712860E-02 -8.637958E-05

 displacements (vx,vy,vz) for set TIPMARKER and time  0.1565555E+01

         2  4.598224E-05 -2.975224E-02 -9.598948E-05

 displacements (vx,vy,vz) for set TIPMARKER and time  0.1655656E+01

         2  4.597439E-05 -3.371235E-02 -1.111226E-04

 displacements (vx,vy,vz) for set TIPMARKER and time  0.1790809E+01

         2  4.600976E-05 -3.942882E-02 -1.348933E-04

 displacements (vx,vy,vz) for set TIPMARKER and time  0.1993538E+01

         2  4.965495E-05 -4.672601E-02 -1.717789E-04

 displacements (vx,vy,vz) for set TIPMARKER and time  0.2196266E+01

         2  5.623241E-05 -5.154639E-02 -2.080657E-04

 displacements (vx,vy,vz) for set TIPMARKER and time  0.2398995E+01

         2  6.468014E-05 -5.270420E-02 -2.395866E-04

 displacements (vx,vy,vz) for set TIPMARKER and time  0.2449677E+01

         2  6.685861E-05 -5.229953E-02 -2.461887E-04

 displacements (vx,vy,vz) for set TIPMARKER and time  0.2500359E+01

         2  6.907993E-05 -5.157531E-02 -2.520668E-04

 displacements (vx,vy,vz) for set TIPMARKER and time  0.2576382E+01

         2  7.245634E-05 -4.987480E-02 -2.594916E-04

 displacements (vx,vy,vz) for set TIPMARKER and time  0.2690417E+01

         2  7.740041E-05 -4.597075E-02 -2.675153E-04

 displacements (vx,vy,vz) for set TIPMARKER and time  0.2804452E+01

         2  8.198832E-05 -4.052878E-02 -2.717121E-04

 displacements (vx,vy,vz) for set TIPMARKER and time  0.2832961E+01

         2  8.309986E-05 -3.893925E-02 -2.721409E-04

 displacements (vx,vy,vz) for set TIPMARKER and time  0.2861470E+01

         2  8.418286E-05 -3.726231E-02 -2.723046E-04

 displacements (vx,vy,vz) for set TIPMARKER and time  0.2904233E+01

         2  8.570771E-05 -3.458756E-02 -2.720249E-04

 displacements (vx,vy,vz) for set TIPMARKER and time  0.2968377E+01

         2  8.777522E-05 -3.023107E-02 -2.703573E-04

 displacements (vx,vy,vz) for set TIPMARKER and time  0.3064594E+01

         2  9.024971E-05 -2.299406E-02 -2.648962E-04

 displacements (vx,vy,vz) for set TIPMARKER and time  0.3100676E+01

         2  9.108526E-05 -2.008134E-02 -2.619241E-04

 displacements (vx,vy,vz) for set TIPMARKER and time  0.3136757E+01

         2  9.181271E-05 -1.707544E-02 -2.584970E-04

 displacements (vx,vy,vz) for set TIPMARKER and time  0.3190879E+01

         2  9.267439E-05 -1.242196E-02 -2.525955E-04

 displacements (vx,vy,vz) for set TIPMARKER and time  0.3272062E+01

         2  9.339136E-05 -5.222024E-03 -2.419114E-04

 displacements (vx,vy,vz) for set TIPMARKER and time  0.3353245E+01

         2  9.351555E-05  2.101208E-03 -2.292100E-04

 displacements (vx,vy,vz) for set TIPMARKER and time  0.3434428E+01

         2  9.302727E-05  9.392140E-03 -2.148893E-04

 displacements (vx,vy,vz) for set TIPMARKER and time  0.3556202E+01

         2  9.346846E-05  1.990644E-02 -1.908246E-04

 displacements (vx,vy,vz) for set TIPMARKER and time  0.3586646E+01

         2  9.366232E-05  2.242079E-02 -1.843943E-04

 displacements (vx,vy,vz) for set TIPMARKER and time  0.3617090E+01

         2  9.393202E-05  2.487329E-02 -1.778333E-04

 displacements (vx,vy,vz) for set TIPMARKER and time  0.3662755E+01

         2  9.452829E-05  2.841889E-02 -1.677184E-04

 displacements (vx,vy,vz) for set TIPMARKER and time  0.3731253E+01

         2  9.579270E-05  3.338020E-02 -1.522536E-04

 displacements (vx,vy,vz) for set TIPMARKER and time  0.3834001E+01

         2  9.849927E-05  3.979724E-02 -1.288902E-04

 displacements (vx,vy,vz) for set TIPMARKER and time  0.3988122E+01

         2  1.039793E-04  4.645470E-02 -9.458049E-05

 displacements (vx,vy,vz) for set TIPMARKER and time  0.4026652E+01

         2  1.054295E-04  4.749583E-02 -8.634763E-05

 displacements (vx,vy,vz) for set TIPMARKER and time  0.4036284E+01

         2  1.057842E-04  4.771346E-02 -8.432973E-05

 displacements (vx,vy,vz) for set TIPMARKER and time  0.4038692E+01

         2  1.058905E-04  4.776514E-02 -8.382763E-05

 displacements (vx,vy,vz) for set TIPMARKER and time  0.4041101E+01

         2  1.059792E-04  4.781573E-02 -8.332642E-05

 displacements (vx,vy,vz) for set TIPMARKER and time  0.4044713E+01

         2  1.061043E-04  4.788955E-02 -8.257622E-05

 displacements (vx,vy,vz) for set TIPMARKER and time  0.4050131E+01

         2  1.063256E-04  4.799561E-02 -8.145420E-05

 displacements (vx,vy,vz) for set TIPMARKER and time  0.4058259E+01

         2  1.066372E-04  4.814415E-02 -7.977810E-05

 displacements (vx,vy,vz) for set TIPMARKER and time  0.4070450E+01

         2  1.071132E-04  4.834291E-02 -7.728113E-05

 displacements (vx,vy,vz) for set TIPMARKER and time  0.4088737E+01

         2  1.078514E-04  4.858665E-02 -7.358207E-05

 displacements (vx,vy,vz) for set TIPMARKER and time  0.4116167E+01

         2  1.089650E-04  4.882916E-02 -6.815612E-05

 displacements (vx,vy,vz) for set TIPMARKER and time  0.4126453E+01

         2  1.093988E-04  4.888205E-02 -6.616258E-05

 displacements (vx,vy,vz) for set TIPMARKER and time  0.4136739E+01

         2  1.098152E-04  4.891440E-02 -6.419316E-05

 displacements (vx,vy,vz) for set TIPMARKER and time  0.4152169E+01

         2  1.104724E-04  4.892448E-02 -6.128240E-05

 displacements (vx,vy,vz) for set TIPMARKER and time  0.4175313E+01

         2  1.114477E-04  4.885331E-02 -5.700332E-05

 displacements (vx,vy,vz) for set TIPMARKER and time  0.4181099E+01

         2  1.116989E-04  4.881929E-02 -5.594901E-05

 displacements (vx,vy,vz) for set TIPMARKER and time  0.4186885E+01

         2  1.119464E-04  4.877872E-02 -5.490131E-05

 displacements (vx,vy,vz) for set TIPMARKER and time  0.4195564E+01

         2  1.123146E-04  4.870563E-02 -5.334415E-05

 displacements (vx,vy,vz) for set TIPMARKER and time  0.4208583E+01

         2  1.128812E-04  4.856839E-02 -5.104782E-05

 displacements (vx,vy,vz) for set TIPMARKER and time  0.4228111E+01

         2  1.137239E-04  4.830090E-02 -4.770756E-05

 displacements (vx,vy,vz) for set TIPMARKER and time  0.4257403E+01

         2  1.150099E-04  4.776072E-02 -4.293228E-05

 displacements (vx,vy,vz) for set TIPMARKER and time  0.4301341E+01

         2  1.169361E-04  4.663189E-02 -3.636857E-05

 displacements (vx,vy,vz) for set TIPMARKER and time  0.4312325E+01

         2  1.174233E-04  4.628914E-02 -3.486123E-05

 displacements (vx,vy,vz) for set TIPMARKER and time  0.4323310E+01

         2  1.179049E-04  4.592173E-02 -3.344345E-05

 displacements (vx,vy,vz) for set TIPMARKER and time  0.4339786E+01

         2  1.186313E-04  4.532450E-02 -3.163994E-05

 displacements (vx,vy,vz) for set TIPMARKER and time  0.4364502E+01

         2  1.197258E-04  4.432511E-02 -2.963856E-05

 displacements (vx,vy,vz) for set TIPMARKER and time  0.4401574E+01

         2  1.213381E-04  4.259510E-02 -2.609005E-05

 displacements (vx,vy,vz) for set TIPMARKER and time  0.4457183E+01

         2  1.236693E-04  3.948036E-02 -1.913886E-05

 displacements (vx,vy,vz) for set TIPMARKER and time  0.4540596E+01

         2  1.269435E-04  3.365580E-02 -9.178106E-06

 displacements (vx,vy,vz) for set TIPMARKER and time  0.4665716E+01

         2  1.311045E-04  2.254895E-02 -1.055368E-07

 displacements (vx,vy,vz) for set TIPMARKER and time  0.4790836E+01

         2  1.343119E-04  9.075100E-03 -5.825308E-06

 displacements (vx,vy,vz) for set TIPMARKER and time  0.4915956E+01

         2  1.363250E-04 -6.101330E-03 -2.375296E-05

 displacements (vx,vy,vz) for set TIPMARKER and time  0.5041076E+01

         2  1.369757E-04 -2.229988E-02 -5.002410E-05

 displacements (vx,vy,vz) for set TIPMARKER and time  0.5166196E+01

         2  1.362359E-04 -3.879028E-02 -8.086335E-05

 displacements (vx,vy,vz) for set TIPMARKER and time  0.5213116E+01

         2  1.361378E-04 -4.491047E-02 -9.226485E-05

 displacements (vx,vy,vz) for set TIPMARKER and time  0.5260036E+01

         2  1.362552E-04 -5.091410E-02 -1.055726E-04

 displacements (vx,vy,vz) for set TIPMARKER and time  0.5330416E+01

         2  1.368902E-04 -5.956553E-02 -1.302523E-04

 displacements (vx,vy,vz) for set TIPMARKER and time  0.5435986E+01

         2  1.388116E-04 -7.135898E-02 -1.738709E-04

 displacements (vx,vy,vz) for set TIPMARKER and time  0.5475575E+01

         2  1.396562E-04 -7.534003E-02 -1.918125E-04

 displacements (vx,vy,vz) for set TIPMARKER and time  0.5485472E+01

         2  1.398820E-04 -7.629211E-02 -1.964303E-04

 displacements (vx,vy,vz) for set TIPMARKER and time  0.5495370E+01

         2  1.401027E-04 -7.722602E-02 -2.010584E-04

 displacements (vx,vy,vz) for set TIPMARKER and time  0.5510215E+01

         2  1.404677E-04 -7.859189E-02 -2.080332E-04

 displacements (vx,vy,vz) for set TIPMARKER and time  0.5532484E+01

         2  1.410365E-04 -8.055958E-02 -2.186234E-04

 displacements (vx,vy,vz) for set TIPMARKER and time  0.5565887E+01

         2  1.419813E-04 -8.332066E-02 -2.344445E-04

 displacements (vx,vy,vz) for set TIPMARKER and time  0.5615992E+01

         2  1.435506E-04 -8.700917E-02 -2.576690E-04

 displacements (vx,vy,vz) for set TIPMARKER and time  0.5691148E+01

         2  1.462217E-04 -9.145818E-02 -2.891682E-04

 displacements (vx,vy,vz) for set TIPMARKER and time  0.5803883E+01

         2  1.507661E-04 -9.551313E-02 -3.311594E-04

 displacements (vx,vy,vz) for set TIPMARKER and time  0.5916619E+01

         2  1.556980E-04 -9.616227E-02 -3.725837E-04

 displacements (vx,vy,vz) for set TIPMARKER and time  0.5944802E+01

         2  1.569453E-04 -9.576057E-02 -3.827227E-04

 displacements (vx,vy,vz) for set TIPMARKER and time  0.5951848E+01

         2  1.572566E-04 -9.562344E-02 -3.851657E-04

 displacements (vx,vy,vz) for set TIPMARKER and time  0.5958894E+01

         2  1.575719E-04 -9.547157E-02 -3.875926E-04

 displacements (vx,vy,vz) for set TIPMARKER and time  0.5969463E+01

         2  1.580391E-04 -9.521625E-02 -3.912472E-04

 displacements (vx,vy,vz) for set TIPMARKER and time  0.5985317E+01

         2  1.587524E-04 -9.477155E-02 -3.967781E-04

 displacements (vx,vy,vz) for set TIPMARKER and time  0.6009097E+01

         2  1.598198E-04 -9.396616E-02 -4.050804E-04

 displacements (vx,vy,vz) for set TIPMARKER and time  0.6044767E+01

         2  1.614281E-04 -9.244813E-02 -4.172404E-04

 displacements (vx,vy,vz) for set TIPMARKER and time  0.6080437E+01

         2  1.630270E-04 -9.055951E-02 -4.288732E-04

 displacements (vx,vy,vz) for set TIPMARKER and time  0.6116107E+01

         2  1.646142E-04 -8.830338E-02 -4.396949E-04

 displacements (vx,vy,vz) for set TIPMARKER and time  0.6169612E+01

         2  1.669279E-04 -8.424849E-02 -4.530304E-04

 displacements (vx,vy,vz) for set TIPMARKER and time  0.6249870E+01

         2  1.701729E-04 -7.674832E-02 -4.652457E-04

 displacements (vx,vy,vz) for set TIPMARKER and time  0.6370257E+01

         2  1.743453E-04 -6.265139E-02 -4.706218E-04

 displacements (vx,vy,vz) for set TIPMARKER and time  0.6550837E+01

         2  1.784377E-04 -3.633983E-02 -4.593226E-04

 displacements (vx,vy,vz) for set TIPMARKER and time  0.6731416E+01

         2  1.797841E-04 -5.919966E-03 -4.283654E-04

 displacements (vx,vy,vz) for set TIPMARKER and time  0.6911996E+01

         2  1.789743E-04  2.550108E-02 -3.733025E-04

 displacements (vx,vy,vz) for set TIPMARKER and time  0.6957141E+01

         2  1.789361E-04  3.317843E-02 -3.545731E-04

 displacements (vx,vy,vz) for set TIPMARKER and time  0.7002286E+01

         2  1.790771E-04  4.064481E-02 -3.341028E-04

 displacements (vx,vy,vz) for set TIPMARKER and time  0.7070004E+01

         2  1.796897E-04  5.130446E-02 -3.020810E-04

 displacements (vx,vy,vz) for set TIPMARKER and time  0.7171580E+01

         2  1.814808E-04  6.573909E-02 -2.531869E-04

 displacements (vx,vy,vz) for set TIPMARKER and time  0.7273156E+01

         2  1.840655E-04  7.789386E-02 -2.058057E-04

 displacements (vx,vy,vz) for set TIPMARKER and time  0.7298550E+01

         2  1.847636E-04  8.053039E-02 -1.943258E-04

 displacements (vx,vy,vz) for set TIPMARKER and time  0.7323944E+01

         2  1.854960E-04  8.298789E-02 -1.827612E-04

 displacements (vx,vy,vz) for set TIPMARKER and time  0.7362035E+01

         2  1.866952E-04  8.632034E-02 -1.652681E-04

 displacements (vx,vy,vz) for set TIPMARKER and time  0.7376320E+01

         2  1.871501E-04  8.745738E-02 -1.586901E-04

 displacements (vx,vy,vz) for set TIPMARKER and time  0.7390604E+01

         2  1.876280E-04  8.853093E-02 -1.520575E-04

 displacements (vx,vy,vz) for set TIPMARKER and time  0.7412030E+01

         2  1.883524E-04  9.002020E-02 -1.419330E-04

 displacements (vx,vy,vz) for set TIPMARKER and time  0.7444169E+01

         2  1.895045E-04  9.197604E-02 -1.265012E-04

 displacements (vx,vy,vz) for set TIPMARKER and time  0.7492378E+01

         2  1.913238E-04  9.426555E-02 -1.031022E-04

 displacements (vx,vy,vz) for set TIPMARKER and time  0.7564692E+01

         2  1.942474E-04  9.618260E-02 -6.782435E-05

 displacements (vx,vy,vz) for set TIPMARKER and time  0.7673162E+01

         2  1.988811E-04  9.550468E-02 -1.780901E-05

 displacements (vx,vy,vz) for set TIPMARKER and time  0.7835868E+01

         2  2.058708E-04  8.652816E-02  4.033976E-05

 displacements (vx,vy,vz) for set TIPMARKER and time  0.7998573E+01

         2  2.121808E-04  6.858516E-02  7.557931E-05

 displacements (vx,vy,vz) for set TIPMARKER and time  0.8161278E+01

         2  2.171209E-04  4.295404E-02  9.084982E-05

 displacements (vx,vy,vz) for set TIPMARKER and time  0.8323984E+01

         2  2.201518E-04  1.155701E-02  8.279575E-05

 displacements (vx,vy,vz) for set TIPMARKER and time  0.8486689E+01

         2  2.209437E-04 -2.305200E-02  4.316952E-05

 displacements (vx,vy,vz) for set TIPMARKER and time  0.8730748E+01

         2  2.222723E-04 -7.356893E-02 -7.176372E-05

 displacements (vx,vy,vz) for set TIPMARKER and time  0.9096835E+01

         2  2.344763E-04 -1.258059E-01 -2.903863E-04

 displacements (vx,vy,vz) for set TIPMARKER and time  0.9462922E+01

         2  2.508666E-04 -1.310020E-01 -4.750837E-04

 displacements (vx,vy,vz) for set TIPMARKER and time  0.9554444E+01

         2  2.549502E-04 -1.235790E-01 -5.081981E-04

 displacements (vx,vy,vz) for set TIPMARKER and time  0.9645966E+01

         2  2.588552E-04 -1.125904E-01 -5.322601E-04

 displacements (vx,vy,vz) for set TIPMARKER and time  0.9680286E+01

         2  2.602755E-04 -1.075807E-01 -5.384642E-04

 displacements (vx,vy,vz) for set TIPMARKER and time  0.9714607E+01

         2  2.616564E-04 -1.021097E-01 -5.429039E-04

 displacements (vx,vy,vz) for set TIPMARKER and time  0.9766088E+01

         2  2.635884E-04 -9.308208E-02 -5.462479E-04

 displacements (vx,vy,vz) for set TIPMARKER and time  0.9843310E+01

         2  2.661663E-04 -7.786696E-02 -5.440955E-04

 displacements (vx,vy,vz) for set TIPMARKER and time  0.9872268E+01

         2  2.670648E-04 -7.168627E-02 -5.411574E-04

 displacements (vx,vy,vz) for set TIPMARKER and time  0.9901226E+01

         2  2.679235E-04 -6.528079E-02 -5.372207E-04

 displacements (vx,vy,vz) for set TIPMARKER and time  0.9944663E+01

         2  2.690541E-04 -5.530058E-02 -5.297891E-04

 displacements (vx,vy,vz) for set TIPMARKER and time  0.1000982E+02

         2  2.704507E-04 -3.962960E-02 -5.157647E-04

 displacements (vx,vy,vz) for set TIPMARKER and time  0.1010755E+02

         2  2.717222E-04 -1.499358E-02 -4.890692E-04

 displacements (vx,vy,vz) for set TIPMARKER and time  0.1025415E+02

         2  2.716785E-04  2.296979E-02 -4.368119E-04

 displacements (vx,vy,vz) for set TIPMARKER and time  0.1030913E+02

         2  2.713524E-04  3.718348E-02 -4.134204E-04

 displacements (vx,vy,vz) for set TIPMARKER and time  0.1036410E+02

         2  2.711209E-04  5.114089E-02 -3.880701E-04

 displacements (vx,vy,vz) for set TIPMARKER and time  0.1044657E+02

         2  2.713607E-04  7.121964E-02 -3.473635E-04

 displacements (vx,vy,vz) for set TIPMARKER and time  0.1047749E+02

         2  2.715421E-04  7.841068E-02 -3.315434E-04

 displacements (vx,vy,vz) for set TIPMARKER and time  0.1050841E+02

         2  2.717925E-04  8.536643E-02 -3.156730E-04

 displacements (vx,vy,vz) for set TIPMARKER and time  0.1055480E+02

         2  2.723753E-04  9.529326E-02 -2.921161E-04

 displacements (vx,vy,vz) for set TIPMARKER and time  0.1062438E+02

         2  2.736319E-04  1.088676E-01 -2.578375E-04

 displacements (vx,vy,vz) for set TIPMARKER and time  0.1072874E+02

         2  2.763587E-04  1.257621E-01 -2.090981E-04

 displacements (vx,vy,vz) for set TIPMARKER and time  0.1088529E+02

         2  2.819055E-04  1.420629E-01 -1.412573E-04

 displacements (vx,vy,vz) for set TIPMARKER and time  0.1104184E+02

         2  2.883999E-04  1.463882E-01 -8.091582E-05

 displacements (vx,vy,vz) for set TIPMARKER and time  0.1119839E+02

         2  2.952286E-04  1.380223E-01 -3.512478E-05

 displacements (vx,vy,vz) for set TIPMARKER and time  0.1135494E+02

         2  3.017936E-04  1.172075E-01 -1.141810E-05

 displacements (vx,vy,vz) for set TIPMARKER and time  0.1139408E+02

         2  3.033954E-04  1.101550E-01 -9.263865E-06

 displacements (vx,vy,vz) for set TIPMARKER and time  0.1143322E+02

         2  3.049517E-04  1.024301E-01 -8.489095E-06

 displacements (vx,vy,vz) for set TIPMARKER and time  0.1144789E+02

         2  3.055211E-04  9.936654E-02 -8.527429E-06

 displacements (vx,vy,vz) for set TIPMARKER and time  0.1146257E+02

         2  3.060912E-04  9.621620E-02 -8.731290E-06

 displacements (vx,vy,vz) for set TIPMARKER and time  0.1148459E+02

         2  3.069109E-04  9.133456E-02 -9.343786E-06

 displacements (vx,vy,vz) for set TIPMARKER and time  0.1151761E+02

         2  3.080997E-04  8.367991E-02 -1.095075E-05

 displacements (vx,vy,vz) for set TIPMARKER and time  0.1156714E+02

         2  3.097348E-04  7.151331E-02 -1.482807E-05

 displacements (vx,vy,vz) for set TIPMARKER and time  0.1158572E+02

         2  3.103314E-04  6.675268E-02 -1.671777E-05

 displacements (vx,vy,vz) for set TIPMARKER and time  0.1160429E+02

         2  3.109008E-04  6.189393E-02 -1.885860E-05

 displacements (vx,vy,vz) for set TIPMARKER and time  0.1163215E+02

         2  3.117088E-04  5.443467E-02 -2.261911E-05

 displacements (vx,vy,vz) for set TIPMARKER and time  0.1166002E+02

         2  3.124622E-04  4.678414E-02 -2.710341E-05

 displacements (vx,vy,vz) for set TIPMARKER and time  0.1168788E+02

         2  3.131609E-04  3.895986E-02 -3.233565E-05

 displacements (vx,vy,vz) for set TIPMARKER and time  0.1172967E+02

         2  3.140778E-04  2.694563E-02 -4.165899E-05

 displacements (vx,vy,vz) for set TIPMARKER and time  0.1174535E+02

         2  3.144015E-04  2.236387E-02 -4.563746E-05

 displacements (vx,vy,vz) for set TIPMARKER and time  0.1176102E+02

         2  3.147083E-04  1.774698E-02 -4.990953E-05

 displacements (vx,vy,vz) for set TIPMARKER and time  0.1178453E+02

         2  3.151239E-04  1.076396E-02 -5.706727E-05

 displacements (vx,vy,vz) for set TIPMARKER and time  0.1181979E+02

         2  3.156545E-04  1.829601E-04 -6.894232E-05

 displacements (vx,vy,vz) for set TIPMARKER and time  0.1187269E+02

         2  3.161779E-04 -1.584386E-02 -8.713183E-05

 displacements (vx,vy,vz) for set TIPMARKER and time  0.1192558E+02

         2  3.164519E-04 -3.193182E-02 -1.076216E-04

 displacements (vx,vy,vz) for set TIPMARKER and time  0.1197848E+02

         2  3.164791E-04 -4.791947E-02 -1.314338E-04

 displacements (vx,vy,vz) for set TIPMARKER and time  0.1203137E+02

         2  3.162361E-04 -6.363578E-02 -1.559441E-04

 displacements (vx,vy,vz) for set TIPMARKER and time  0.1204460E+02

         2  3.161546E-04 -6.750566E-02 -1.620102E-04

 displacements (vx,vy,vz) for set TIPMARKER and time  0.1205782E+02

         2  3.160807E-04 -7.134540E-02 -1.678843E-04

 displacements (vx,vy,vz) for set TIPMARKER and time  0.1207766E+02

         2  3.159912E-04 -7.704272E-02 -1.761544E-04

 displacements (vx,vy,vz) for set TIPMARKER and time  0.1210741E+02

         2  3.159363E-04 -8.543213E-02 -1.881108E-04

 displacements (vx,vy,vz) for set TIPMARKER and time  0.1215204E+02

         2  3.160330E-04 -9.760496E-02 -2.070824E-04

 displacements (vx,vy,vz) for set TIPMARKER and time  0.1221899E+02

         2  3.166025E-04 -1.147452E-01 -2.389447E-04

 displacements (vx,vy,vz) for set TIPMARKER and time  0.1231940E+02

         2  3.182938E-04 -1.373677E-01 -2.871268E-04

 displacements (vx,vy,vz) for set TIPMARKER and time  0.1235706E+02

         2  3.190342E-04 -1.447836E-01 -3.041564E-04

 displacements (vx,vy,vz) for set TIPMARKER and time  0.1236648E+02

         2  3.192242E-04 -1.465376E-01 -3.083599E-04

 displacements (vx,vy,vz) for set TIPMARKER and time  0.1237589E+02

         2  3.194259E-04 -1.482503E-01 -3.125405E-04

 displacements (vx,vy,vz) for set TIPMARKER and time  0.1239001E+02

         2  3.197363E-04 -1.507404E-01 -3.188121E-04

 displacements (vx,vy,vz) for set TIPMARKER and time  0.1241119E+02

         2  3.202471E-04 -1.542932E-01 -3.284611E-04

 displacements (vx,vy,vz) for set TIPMARKER and time  0.1244297E+02

         2  3.210903E-04 -1.591983E-01 -3.432931E-04

 displacements (vx,vy,vz) for set TIPMARKER and time  0.1249063E+02

         2  3.225129E-04 -1.655549E-01 -3.640708E-04

 displacements (vx,vy,vz) for set TIPMARKER and time  0.1253829E+02

         2  3.240629E-04 -1.706559E-01 -3.811541E-04

 displacements (vx,vy,vz) for set TIPMARKER and time  0.1258594E+02

         2  3.257274E-04 -1.744468E-01 -3.937621E-04

 displacements (vx,vy,vz) for set TIPMARKER and time  0.1263360E+02

         2  3.275047E-04 -1.768788E-01 -4.034635E-04

 displacements (vx,vy,vz) for set TIPMARKER and time  0.1268126E+02

         2  3.294018E-04 -1.779059E-01 -4.118580E-04

 displacements (vx,vy,vz) for set TIPMARKER and time  0.1269914E+02

         2  3.301283E-04 -1.779218E-01 -4.144459E-04

 displacements (vx,vy,vz) for set TIPMARKER and time  0.1271701E+02

         2  3.308635E-04 -1.777338E-01 -4.164801E-04

 displacements (vx,vy,vz) for set TIPMARKER and time  0.1273488E+02

         2  3.316115E-04 -1.773414E-01 -4.179938E-04

 displacements (vx,vy,vz) for set TIPMARKER and time  0.1275275E+02

         2  3.323643E-04 -1.767454E-01 -4.189328E-04

 displacements (vx,vy,vz) for set TIPMARKER and time  0.1277956E+02

         2  3.335136E-04 -1.754715E-01 -4.193307E-04

 displacements (vx,vy,vz) for set TIPMARKER and time  0.1281977E+02

         2  3.352701E-04 -1.727172E-01 -4.187234E-04

 displacements (vx,vy,vz) for set TIPMARKER and time  0.1288009E+02

         2  3.379803E-04 -1.667264E-01 -4.171528E-04

 displacements (vx,vy,vz) for set TIPMARKER and time  0.1297057E+02

         2  3.420589E-04 -1.537423E-01 -4.098832E-04

 displacements (vx,vy,vz) for set TIPMARKER and time  0.1306105E+02

         2  3.459708E-04 -1.363051E-01 -3.908906E-04

 displacements (vx,vy,vz) for set TIPMARKER and time  0.1315153E+02

         2  3.495922E-04 -1.149047E-01 -3.620329E-04

 displacements (vx,vy,vz) for set TIPMARKER and time  0.1328725E+02

         2  3.540708E-04 -7.670655E-02 -3.080477E-04

 displacements (vx,vy,vz) for set TIPMARKER and time  0.1349082E+02

         2  3.577026E-04 -1.067484E-02 -2.194901E-04

 displacements (vx,vy,vz) for set TIPMARKER and time  0.1379619E+02

         2  3.561707E-04  8.819320E-02 -1.276748E-04

 displacements (vx,vy,vz) for set TIPMARKER and time  0.1382482E+02

         2  3.560999E-04  9.679402E-02 -1.228779E-04

 displacements (vx,vy,vz) for set TIPMARKER and time  0.1385345E+02

         2  3.561088E-04  1.051254E-01 -1.182837E-04

 displacements (vx,vy,vz) for set TIPMARKER and time  0.1389639E+02

         2  3.562637E-04  1.170479E-01 -1.116080E-04

 displacements (vx,vy,vz) for set TIPMARKER and time  0.1396080E+02

         2  3.568842E-04  1.334734E-01 -1.040671E-04

 displacements (vx,vy,vz) for set TIPMARKER and time  0.1405742E+02

         2  3.586079E-04  1.543602E-01 -1.013676E-04

 displacements (vx,vy,vz) for set TIPMARKER and time  0.1420235E+02

         2  3.627879E-04  1.758846E-01 -1.117487E-04

 displacements (vx,vy,vz) for set TIPMARKER and time  0.1423858E+02

         2  3.639121E-04  1.792771E-01 -1.163281E-04

 displacements (vx,vy,vz) for set TIPMARKER and time  0.1427482E+02

         2  3.651330E-04  1.817988E-01 -1.221049E-04

 displacements (vx,vy,vz) for set TIPMARKER and time  0.1432916E+02

         2  3.671248E-04  1.838940E-01 -1.334934E-04

 displacements (vx,vy,vz) for set TIPMARKER and time  0.1434954E+02

         2  3.679037E-04  1.841506E-01 -1.383991E-04

 displacements (vx,vy,vz) for set TIPMARKER and time  0.1436993E+02

         2  3.686896E-04  1.841168E-01 -1.433642E-04

 displacements (vx,vy,vz) for set TIPMARKER and time  0.1440050E+02

         2  3.699188E-04  1.835221E-01 -1.507299E-04

 displacements (vx,vy,vz) for set TIPMARKER and time  0.1441196E+02

         2  3.703773E-04  1.831309E-01 -1.534436E-04

 displacements (vx,vy,vz) for set TIPMARKER and time  0.1442342E+02

         2  3.708487E-04  1.826478E-01 -1.561312E-04

 displacements (vx,vy,vz) for set TIPMARKER and time  0.1444062E+02

         2  3.715570E-04  1.817502E-01 -1.601825E-04

 displacements (vx,vy,vz) for set TIPMARKER and time  0.1446641E+02

         2  3.726475E-04  1.800152E-01 -1.665139E-04

 displacements (vx,vy,vz) for set TIPMARKER and time  0.1447609E+02

         2  3.730590E-04  1.792447E-01 -1.690046E-04

 displacements (vx,vy,vz) for set TIPMARKER and time  0.1448576E+02

         2  3.734729E-04  1.784097E-01 -1.715807E-04

 displacements (vx,vy,vz) for set TIPMARKER and time  0.1450027E+02

         2  3.741042E-04  1.770366E-01 -1.756246E-04

 displacements (vx,vy,vz) for set TIPMARKER and time  0.1452203E+02

         2  3.750591E-04  1.747081E-01 -1.820593E-04

 displacements (vx,vy,vz) for set TIPMARKER and time  0.1454380E+02

         2  3.760293E-04  1.720601E-01 -1.888071E-04

 displacements (vx,vy,vz) for set TIPMARKER and time  0.1456556E+02

         2  3.770027E-04  1.690979E-01 -1.956595E-04

 displacements (vx,vy,vz) for set TIPMARKER and time  0.1459821E+02

         2  3.784744E-04  1.640824E-01 -2.057559E-04

 displacements (vx,vy,vz) for set TIPMARKER and time  0.1464718E+02

         2  3.806586E-04  1.553161E-01 -2.197002E-04

 displacements (vx,vy,vz) for set TIPMARKER and time  0.1472063E+02

         2  3.838767E-04  1.395141E-01 -2.414218E-04

 displacements (vx,vy,vz) for set TIPMARKER and time  0.1474817E+02

         2  3.850749E-04  1.328012E-01 -2.523991E-04

 displacements (vx,vy,vz) for set TIPMARKER and time  0.1477572E+02

         2  3.863034E-04  1.256886E-01 -2.680255E-04

 displacements (vx,vy,vz) for set TIPMARKER and time  0.1481704E+02
