
 displacements (vx,vy,vz) for set TIPMARKER and time  0.1000000E+00

         2  2.794233E-07 -3.088597E-05 -6.402401E-08

 displacements (vx,vy,vz) for set TIPMARKER and time  0.2000000E+00

         2  1.447559E-06 -1.509525E-04 -3.509217E-07

 displacements (vx,vy,vz) for set TIPMARKER and time  0.3000000E+00

         2  3.445283E-06 -4.141322E-04 -1.039612E-06

 displacements (vx,vy,vz) for set TIPMARKER and time  0.4000000E+00

         2  6.184786E-06 -8.613360E-04 -2.272429E-06

 displacements (vx,vy,vz) for set TIPMARKER and time  0.5000000E+00

         2  9.554831E-06 -1.512849E-03 -4.122387E-06

 displacements (vx,vy,vz) for set TIPMARKER and time  0.6000000E+00

         2  1.342046E-05 -2.382804E-03 -6.630908E-06

 displacements (vx,vy,vz) for set TIPMARKER and time  0.7000000E+00

         2  1.763383E-05 -3.517685E-03 -9.917927E-06

 displacements (vx,vy,vz) for set TIPMARKER and time  0.8000000E+00

         2  2.203283E-05 -5.002872E-03 -1.423263E-05

 displacements (vx,vy,vz) for set TIPMARKER and time  0.9000000E+00

         2  2.645338E-05 -6.912894E-03 -1.985839E-05

 displacements (vx,vy,vz) for set TIPMARKER and time  0.1000000E+01

         2  3.072598E-05 -9.275195E-03 -2.698128E-05

 displacements (vx,vy,vz) for set TIPMARKER and time  0.1100000E+01

         2  3.468981E-05 -1.207490E-02 -3.565757E-05

 displacements (vx,vy,vz) for set TIPMARKER and time  0.1200000E+01

         2  3.818958E-05 -1.526627E-02 -4.584305E-05

 displacements (vx,vy,vz) for set TIPMARKER and time  0.1300000E+01

         2  4.108993E-05 -1.880309E-02 -5.747589E-05

 displacements (vx,vy,vz) for set TIPMARKER and time  0.1400000E+01

         2  4.327184E-05 -2.265880E-02 -7.056148E-05

 displacements (vx,vy,vz) for set TIPMARKER and time  0.1500000E+01

         2  4.464473E-05 -2.678725E-02 -8.510136E-05

 displacements (vx,vy,vz) for set TIPMARKER and time  0.1600000E+01

         2  4.514041E-05 -3.108631E-02 -1.009652E-04

 displacements (vx,vy,vz) for set TIPMARKER and time  0.1750000E+01

         2  4.461786E-05 -3.746798E-02 -1.264362E-04

 displacements (vx,vy,vz) for set TIPMARKER and time  0.1975000E+01

         2  4.831989E-05 -4.565951E-02 -1.663676E-04

 displacements (vx,vy,vz) for set TIPMARKER and time  0.2200000E+01

         2  5.566929E-05 -5.078442E-02 -2.052646E-04

 displacements (vx,vy,vz) for set TIPMARKER and time  0.2425000E+01

         2  6.520487E-05 -5.138534E-02 -2.379455E-04

 displacements (vx,vy,vz) for set TIPMARKER and time  0.2650000E+01

         2  7.510683E-05 -4.626385E-02 -2.587408E-04

 displacements (vx,vy,vz) for set TIPMARKER and time  0.2875000E+01

         2  8.348144E-05 -3.516786E-02 -2.642161E-04

 displacements (vx,vy,vz) for set TIPMARKER and time  0.3100000E+01

         2  8.870065E-05 -1.920842E-02 -2.532801E-04

 displacements (vx,vy,vz) for set TIPMARKER and time  0.3325000E+01

         2  8.963631E-05 -4.328366E-04 -2.256956E-04

 displacements (vx,vy,vz) for set TIPMARKER and time  0.3550000E+01

         2  9.033300E-05  1.848048E-02 -1.843933E-04

 displacements (vx,vy,vz) for set TIPMARKER and time  0.3887500E+01

         2  1.004163E-04  3.932387E-02 -1.132896E-04

 displacements (vx,vy,vz) for set TIPMARKER and time  0.4225000E+01

         2  1.150404E-04  4.357355E-02 -4.858097E-05

 displacements (vx,vy,vz) for set TIPMARKER and time  0.4562500E+01

         2  1.280212E-04  2.729017E-02 -1.124381E-05

 displacements (vx,vy,vz) for set TIPMARKER and time  0.4900000E+01

         2  1.338039E-04 -6.523997E-03 -2.573454E-05

 displacements (vx,vy,vz) for set TIPMARKER and time  0.5237500E+01

         2  1.340244E-04 -4.744014E-02 -1.028267E-04

 displacements (vx,vy,vz) for set TIPMARKER and time  0.5575000E+01

         2  1.436254E-04 -8.022595E-02 -2.265496E-04

 displacements (vx,vy,vz) for set TIPMARKER and time  0.5912500E+01

         2  1.583456E-04 -9.126552E-02 -3.564306E-04

 displacements (vx,vy,vz) for set TIPMARKER and time  0.6250000E+01

         2  1.720235E-04 -7.389011E-02 -4.417167E-04

 displacements (vx,vy,vz) for set TIPMARKER and time  0.6587500E+01

         2  1.787679E-04 -3.133076E-02 -4.471035E-04

 displacements (vx,vy,vz) for set TIPMARKER and time  0.6925000E+01

         2  1.777036E-04  2.283287E-02 -3.690147E-04

 displacements (vx,vy,vz) for set TIPMARKER and time  0.7262500E+01

         2  1.860689E-04  6.914503E-02 -2.341126E-04

 displacements (vx,vy,vz) for set TIPMARKER and time  0.7600000E+01

         2  2.000524E-04  8.960598E-02 -8.224024E-05

 displacements (vx,vy,vz) for set TIPMARKER and time  0.7937500E+01

         2  2.137168E-04  7.433344E-02  4.527986E-05

 displacements (vx,vy,vz) for set TIPMARKER and time  0.8275000E+01

         2  2.212161E-04  2.599476E-02  9.829379E-05

 displacements (vx,vy,vz) for set TIPMARKER and time  0.8612500E+01

         2  2.193286E-04 -3.995072E-02  3.415537E-05

 displacements (vx,vy,vz) for set TIPMARKER and time  0.8950000E+01

         2  2.272938E-04 -9.967488E-02 -1.374113E-04

 displacements (vx,vy,vz) for set TIPMARKER and time  0.9287500E+01

         2  2.414464E-04 -1.295983E-01 -3.455646E-04

 displacements (vx,vy,vz) for set TIPMARKER and time  0.9625000E+01

         2  2.559549E-04 -1.162891E-01 -5.049478E-04

 displacements (vx,vy,vz) for set TIPMARKER and time  0.9962500E+01

         2  2.646304E-04 -6.189187E-02 -5.549405E-04

 displacements (vx,vy,vz) for set TIPMARKER and time  0.1030000E+02

         2  2.632266E-04  1.607635E-02 -4.787390E-04

 displacements (vx,vy,vz) for set TIPMARKER and time  0.1063750E+02

         2  2.697626E-04  8.934181E-02 -3.190053E-04

 displacements (vx,vy,vz) for set TIPMARKER and time  0.1097500E+02

         2  2.829274E-04  1.295034E-01 -1.346800E-04

 displacements (vx,vy,vz) for set TIPMARKER and time  0.1131250E+02

         2  2.970973E-04  1.200321E-01  3.429646E-05

 displacements (vx,vy,vz) for set TIPMARKER and time  0.1165000E+02

         2  3.062165E-04  6.169585E-02  1.292055E-04

 displacements (vx,vy,vz) for set TIPMARKER and time  0.1198750E+02

         2  3.060582E-04 -2.695557E-02  8.193802E-05

 displacements (vx,vy,vz) for set TIPMARKER and time  0.1232500E+02

         2  3.121810E-04 -1.132387E-01 -1.011541E-04

 displacements (vx,vy,vz) for set TIPMARKER and time  0.1266250E+02

         2  3.253498E-04 -1.630498E-01 -3.224745E-04

 displacements (vx,vy,vz) for set TIPMARKER and time  0.1300000E+02

         2  3.402704E-04 -1.559675E-01 -4.806295E-04

 displacements (vx,vy,vz) for set TIPMARKER and time  0.1333750E+02

         2  3.506519E-04 -9.194261E-02 -5.167273E-04

 displacements (vx,vy,vz) for set TIPMARKER and time  0.1367500E+02

         2  3.513996E-04  8.142087E-03 -4.239372E-04

 displacements (vx,vy,vz) for set TIPMARKER and time  0.1401250E+02

         2  3.560335E-04  1.069367E-01 -2.779749E-04

 displacements (vx,vy,vz) for set TIPMARKER and time  0.1435000E+02

         2  3.682837E-04  1.655254E-01 -1.534498E-04

 displacements (vx,vy,vz) for set TIPMARKER and time  0.1468750E+02

         2  3.828853E-04  1.607114E-01 -5.354508E-05

 displacements (vx,vy,vz) for set TIPMARKER and time  0.1502500E+02

         2  3.936125E-04  9.182018E-02 -4.932787E-06

 displacements (vx,vy,vz) for set TIPMARKER and time  0.1536250E+02

         2  3.956259E-04 -1.891542E-02 -7.284488E-05

 displacements (vx,vy,vz) for set TIPMARKER and time  0.1570000E+02

         2  3.996814E-04 -1.296228E-01 -2.297571E-04

 displacements (vx,vy,vz) for set TIPMARKER and time  0.1603750E+02

         2  4.114003E-04 -1.954635E-01 -3.534992E-04

 displacements (vx,vy,vz) for set TIPMARKER and time  0.1637500E+02

         2  4.262867E-04 -1.901195E-01 -3.734322E-04

 displacements (vx,vy,vz) for set TIPMARKER and time  0.1671250E+02

         2  4.380452E-04 -1.133073E-01 -2.853608E-04

 displacements (vx,vy,vz) for set TIPMARKER and time  0.1705000E+02

         2  4.407943E-04  9.595211E-03 -1.349190E-04

 displacements (vx,vy,vz) for set TIPMARKER and time  0.1738750E+02

         2  4.435166E-04  1.311053E-01 -6.618427E-05

 displacements (vx,vy,vz) for set TIPMARKER and time  0.1772500E+02

         2  4.548755E-04  2.016384E-01 -1.386012E-04

 displacements (vx,vy,vz) for set TIPMARKER and time  0.1806250E+02

         2  4.698707E-04  1.938757E-01 -2.475713E-04

 displacements (vx,vy,vz) for set TIPMARKER and time  0.1840000E+02

         2  4.822274E-04  1.085594E-01 -3.503161E-04

 displacements (vx,vy,vz) for set TIPMARKER and time  0.1873750E+02

         2  4.864122E-04 -2.631624E-02 -4.697499E-04

 displacements (vx,vy,vz) for set TIPMARKER and time  0.1907500E+02

         2  4.880129E-04 -1.573792E-01 -5.132596E-04

 displacements (vx,vy,vz) for set TIPMARKER and time  0.1941250E+02

         2  4.977894E-04 -2.297719E-01 -3.766040E-04

 displacements (vx,vy,vz) for set TIPMARKER and time  0.1975000E+02

         2  5.123344E-04 -2.155053E-01 -1.100643E-04

 displacements (vx,vy,vz) for set TIPMARKER and time  0.2008750E+02

         2  5.251310E-04 -1.176787E-01  1.891453E-04

 displacements (vx,vy,vz) for set TIPMARKER and time  0.2042500E+02

         2  5.297079E-04  3.055915E-02  3.690768E-04

 displacements (vx,vy,vz) for set TIPMARKER and time  0.2076250E+02

         2  5.307226E-04  1.686789E-01  2.021168E-04

 displacements (vx,vy,vz) for set TIPMARKER and time  0.2110000E+02

         2  5.412640E-04  2.386563E-01 -2.333803E-04

 displacements (vx,vy,vz) for set TIPMARKER and time  0.2143750E+02

         2  5.565447E-04  2.146299E-01 -6.432509E-04

 displacements (vx,vy,vz) for set TIPMARKER and time  0.2177500E+02

         2  5.704791E-04  1.029495E-01 -9.211072E-04

 displacements (vx,vy,vz) for set TIPMARKER and time  0.2211250E+02

         2  5.764890E-04 -5.802816E-02 -1.004006E-03

 displacements (vx,vy,vz) for set TIPMARKER and time  0.2245000E+02

         2  5.749885E-04 -2.002923E-01 -7.384586E-04

 displacements (vx,vy,vz) for set TIPMARKER and time  0.2278750E+02

         2  5.825870E-04 -2.633439E-01 -1.828526E-04

 displacements (vx,vy,vz) for set TIPMARKER and time  0.2312500E+02

         2  5.967735E-04 -2.246577E-01  4.113115E-04

 displacements (vx,vy,vz) for set TIPMARKER and time  0.2346250E+02

         2  6.103078E-04 -9.543153E-02  8.545867E-04

 displacements (vx,vy,vz) for set TIPMARKER and time  0.2380000E+02

         2  6.168368E-04  7.777205E-02  8.410704E-04

 displacements (vx,vy,vz) for set TIPMARKER and time  0.2413750E+02

         2  6.165401E-04  2.191951E-01  1.971130E-04

 displacements (vx,vy,vz) for set TIPMARKER and time  0.2447500E+02

         2  6.260649E-04  2.697541E-01 -6.465201E-04

 displacements (vx,vy,vz) for set TIPMARKER and time  0.2481250E+02

         2  6.413774E-04  2.130813E-01 -1.257228E-03

 displacements (vx,vy,vz) for set TIPMARKER and time  0.2515000E+02

         2  6.564921E-04  6.575692E-02 -1.527314E-03

 displacements (vx,vy,vz) for set TIPMARKER and time  0.2548750E+02

         2  6.632739E-04 -1.167416E-01 -1.290637E-03

 displacements (vx,vy,vz) for set TIPMARKER and time  0.2582500E+02

         2  6.583022E-04 -2.519433E-01 -5.273356E-04

 displacements (vx,vy,vz) for set TIPMARKER and time  0.2616250E+02

         2  6.642636E-04 -2.847927E-01  3.803133E-04

 displacements (vx,vy,vz) for set TIPMARKER and time  0.2650000E+02

         2  6.781994E-04 -2.059779E-01  1.082312E-03

 displacements (vx,vy,vz) for set TIPMARKER and time  0.2683750E+02

         2  6.924011E-04 -3.936238E-02  1.335805E-03

 displacements (vx,vy,vz) for set TIPMARKER and time  0.2717500E+02

         2  7.014493E-04  1.479142E-01  7.616350E-04

 displacements (vx,vy,vz) for set TIPMARKER and time  0.2751250E+02

         2  7.014195E-04  2.698791E-01 -3.758113E-04

 displacements (vx,vy,vz) for set TIPMARKER and time  0.2785000E+02

         2  7.092735E-04  2.803352E-01 -1.313089E-03

 displacements (vx,vy,vz) for set TIPMARKER and time  0.2818750E+02

         2  7.242552E-04  1.779426E-01 -1.767787E-03

 displacements (vx,vy,vz) for set TIPMARKER and time  0.2852500E+02

         2  7.392635E-04 -5.365688E-03 -1.638263E-03

 displacements (vx,vy,vz) for set TIPMARKER and time  0.2886250E+02

         2  7.457640E-04 -1.909670E-01 -8.510048E-04

 displacements (vx,vy,vz) for set TIPMARKER and time  0.2920000E+02

         2  7.422181E-04 -2.937184E-01  2.042477E-04

 displacements (vx,vy,vz) for set TIPMARKER and time  0.2953750E+02

         2  7.474652E-04 -2.783714E-01  1.022797E-03

 displacements (vx,vy,vz) for set TIPMARKER and time  0.2987500E+02

         2  7.610741E-04 -1.510970E-01  1.383789E-03

 displacements (vx,vy,vz) for set TIPMARKER and time  0.3021250E+02

         2  7.764411E-04  4.512811E-02  1.000246E-03

 displacements (vx,vy,vz) for set TIPMARKER and time  0.3055000E+02

         2  7.877908E-04  2.212994E-01 -1.283406E-04

 displacements (vx,vy,vz) for set TIPMARKER and time  0.3088750E+02

         2  7.894051E-04  2.994625E-01 -1.210538E-03

 displacements (vx,vy,vz) for set TIPMARKER and time  0.3122500E+02

         2  7.952298E-04  2.570370E-01 -1.695235E-03

 displacements (vx,vy,vz) for set TIPMARKER and time  0.3156250E+02

         2  8.088288E-04  1.073006E-01 -1.557610E-03

 displacements (vx,vy,vz) for set TIPMARKER and time  0.3190000E+02

         2  8.221849E-04 -9.484781E-02 -8.208642E-04

 displacements (vx,vy,vz) for set TIPMARKER and time  0.3223750E+02

         2  8.294116E-04 -2.546041E-01  1.623772E-04

 displacements (vx,vy,vz) for set TIPMARKER and time  0.3257500E+02

         2  8.293928E-04 -3.056388E-01  8.796931E-04

 displacements (vx,vy,vz) for set TIPMARKER and time  0.3291250E+02

         2  8.340561E-04 -2.363346E-01  1.111606E-03

 displacements (vx,vy,vz) for set TIPMARKER and time  0.3325000E+02

         2  8.475137E-04 -6.757767E-02  7.648662E-04

 displacements (vx,vy,vz) for set TIPMARKER and time  0.3358750E+02

         2  8.637901E-04  1.327764E-01 -1.849707E-04

 displacements (vx,vy,vz) for set TIPMARKER and time  0.3392500E+02

         2  8.757544E-04  2.704432E-01 -1.164744E-03

 displacements (vx,vy,vz) for set TIPMARKER and time  0.3426250E+02

         2  8.785154E-04  2.939058E-01 -1.540489E-03

 displacements (vx,vy,vz) for set TIPMARKER and time  0.3460000E+02

         2  8.820028E-04  2.004468E-01 -1.255909E-03

 displacements (vx,vy,vz) for set TIPMARKER and time  0.3510625E+02

         2  9.012671E-04 -7.086307E-02 -5.859296E-05

 displacements (vx,vy,vz) for set TIPMARKER and time  0.3561250E+02

         2  9.154872E-04 -2.802475E-01  8.686551E-04

 displacements (vx,vy,vz) for set TIPMARKER and time  0.3611875E+02

         2  9.139815E-04 -2.552421E-01  7.444956E-04

 displacements (vx,vy,vz) for set TIPMARKER and time  0.3662500E+02

         2  9.328640E-04 -3.217623E-02 -1.896996E-04

 displacements (vx,vy,vz) for set TIPMARKER and time  0.3713125E+02

         2  9.554834E-04  2.219346E-01 -1.325270E-03

 displacements (vx,vy,vz) for set TIPMARKER and time  0.3763750E+02

         2  9.619411E-04  2.857605E-01 -1.360479E-03

 displacements (vx,vy,vz) for set TIPMARKER and time  0.3814375E+02

         2  9.696625E-04  1.171082E-01 -1.386287E-04

 displacements (vx,vy,vz) for set TIPMARKER and time  0.3865000E+02

         2  9.896308E-04 -1.409798E-01  8.975272E-04

 displacements (vx,vy,vz) for set TIPMARKER and time  0.3915625E+02

         2  1.002604E-03 -2.890718E-01  9.096029E-04

 displacements (vx,vy,vz) for set TIPMARKER and time  0.3966250E+02

         2  1.005051E-03 -1.963640E-01 -1.217190E-05

 displacements (vx,vy,vz) for set TIPMARKER and time  0.4016875E+02

         2  1.026679E-03  4.838245E-02 -1.168318E-03

 displacements (vx,vy,vz) for set TIPMARKER and time  0.4067500E+02

         2  1.046047E-03  2.518561E-01 -1.552207E-03

 displacements (vx,vy,vz) for set TIPMARKER and time  0.4118125E+02

         2  1.047218E-03  2.521664E-01 -7.184566E-04

 displacements (vx,vy,vz) for set TIPMARKER and time  0.4168750E+02

         2  1.058371E-03  4.745209E-02  6.923896E-04

 displacements (vx,vy,vz) for set TIPMARKER and time  0.4219375E+02

         2  1.078696E-03 -1.905900E-01  1.198654E-03

 displacements (vx,vy,vz) for set TIPMARKER and time  0.4270000E+02

         2  1.089988E-03 -2.760967E-01  4.629884E-04

 displacements (vx,vy,vz) for set TIPMARKER and time  0.4320625E+02

         2  1.097440E-03 -1.425327E-01 -6.686805E-04

 displacements (vx,vy,vz) for set TIPMARKER and time  0.4371250E+02

         2  1.119973E-03  1.029129E-01 -1.498499E-03

 displacements (vx,vy,vz) for set TIPMARKER and time  0.4421875E+02

         2  1.136094E-03  2.618490E-01 -1.248156E-03

 displacements (vx,vy,vz) for set TIPMARKER and time  0.4472500E+02

         2  1.132215E-03  2.122903E-01 -7.161178E-05

 displacements (vx,vy,vz) for set TIPMARKER and time  0.4523125E+02

         2  1.147163E-03 -2.595154E-03  9.515401E-04

 displacements (vx,vy,vz) for set TIPMARKER and time  0.4573750E+02

         2  1.167352E-03 -2.151331E-01  9.127613E-04

 displacements (vx,vy,vz) for set TIPMARKER and time  0.4624375E+02

         2  1.175350E-03 -2.541075E-01 -2.597614E-05

 displacements (vx,vy,vz) for set TIPMARKER and time  0.4675000E+02

         2  1.186727E-03 -9.654920E-02 -8.916649E-04

 displacements (vx,vy,vz) for set TIPMARKER and time  0.4725625E+02

         2  1.209027E-03  1.341508E-01 -1.230929E-03

 displacements (vx,vy,vz) for set TIPMARKER and time  0.4776250E+02

         2  1.222096E-03  2.578865E-01 -7.801960E-04

 displacements (vx,vy,vz) for set TIPMARKER and time  0.4826875E+02

         2  1.220753E-03  1.768515E-01  1.703519E-04

 displacements (vx,vy,vz) for set TIPMARKER and time  0.4877500E+02

         2  1.238934E-03 -3.762640E-02  6.891781E-04

 displacements (vx,vy,vz) for set TIPMARKER and time  0.4928125E+02

         2  1.257991E-03 -2.232714E-01  4.185830E-04

 displacements (vx,vy,vz) for set TIPMARKER and time  0.4978750E+02

         2  1.261212E-03 -2.330308E-01 -2.143878E-04

 displacements (vx,vy,vz) for set TIPMARKER and time  0.5029375E+02

         2  1.275716E-03 -6.376128E-02 -6.314930E-04

 displacements (vx,vy,vz) for set TIPMARKER and time  0.5080000E+02

         2  1.297521E-03  1.514116E-01 -7.154817E-04

 displacements (vx,vy,vz) for set TIPMARKER and time  0.5130625E+02

         2  1.307488E-03  2.490505E-01 -4.822080E-04

 displacements (vx,vy,vz) for set TIPMARKER and time  0.5181250E+02

         2  1.311590E-03  1.523334E-01 -3.958529E-05

 displacements (vx,vy,vz) for set TIPMARKER and time  0.5231875E+02

         2  1.332004E-03 -5.904392E-02  1.490514E-04

 displacements (vx,vy,vz) for set TIPMARKER and time  0.5282500E+02

         2  1.348571E-03 -2.248295E-01  2.316740E-05

 displacements (vx,vy,vz) for set TIPMARKER and time  0.5333125E+02

         2  1.346360E-03 -2.169316E-01 -8.011328E-05

 displacements (vx,vy,vz) for set TIPMARKER and time  0.5383750E+02

         2  1.363405E-03 -4.407850E-02 -1.027963E-04

 displacements (vx,vy,vz) for set TIPMARKER and time  0.5434375E+02

         2  1.384545E-03  1.608477E-01 -2.353754E-04

 displacements (vx,vy,vz) for set TIPMARKER and time  0.5485000E+02

         2  1.391166E-03  2.416327E-01 -4.427148E-04

 displacements (vx,vy,vz) for set TIPMARKER and time  0.5535625E+02

         2  1.400382E-03  1.367597E-01 -4.805783E-04

 displacements (vx,vy,vz) for set TIPMARKER and time  0.5586250E+02

         2  1.421943E-03 -7.123868E-02 -3.930694E-04

 displacements (vx,vy,vz) for set TIPMARKER and time  0.5636875E+02

         2  1.434864E-03 -2.255612E-01 -1.514089E-04

 displacements (vx,vy,vz) for set TIPMARKER and time  0.5687500E+02

         2  1.434086E-03 -2.063946E-01  2.453959E-04

 displacements (vx,vy,vz) for set TIPMARKER and time  0.5738125E+02

         2  1.453324E-03 -3.168440E-02  4.233400E-04

 displacements (vx,vy,vz) for set TIPMARKER and time  0.5788750E+02

         2  1.473305E-03  1.673945E-01  4.591075E-05

 displacements (vx,vy,vz) for set TIPMARKER and time  0.5839375E+02

         2  1.476229E-03  2.380440E-01 -6.186261E-04

 displacements (vx,vy,vz) for set TIPMARKER and time  0.5890000E+02

         2  1.489765E-03  1.262812E-01 -9.256608E-04

 displacements (vx,vy,vz) for set TIPMARKER and time  0.5940625E+02

         2  1.511321E-03 -8.088202E-02 -7.281772E-04

 displacements (vx,vy,vz) for set TIPMARKER and time  0.5991250E+02

         2  1.519906E-03 -2.284962E-01 -9.247454E-05

 displacements (vx,vy,vz) for set TIPMARKER and time  0.6041875E+02

         2  1.523290E-03 -2.002134E-01  6.076925E-04

 displacements (vx,vy,vz) for set TIPMARKER and time  0.6092500E+02

         2  1.544436E-03 -2.060337E-02  7.398580E-04

 displacements (vx,vy,vz) for set TIPMARKER and time  0.6143125E+02

         2  1.562534E-03  1.760477E-01  4.885001E-05

 displacements (vx,vy,vz) for set TIPMARKER and time  0.6193750E+02

         2  1.561262E-03  2.381407E-01 -9.015890E-04

 displacements (vx,vy,vz) for set TIPMARKER and time  0.6244375E+02

         2  1.578129E-03  1.169423E-01 -1.196462E-03

 displacements (vx,vy,vz) for set TIPMARKER and time  0.6295000E+02

         2  1.598532E-03 -9.374865E-02 -7.425423E-04

 displacements (vx,vy,vz) for set TIPMARKER and time  0.6345625E+02

         2  1.602514E-03 -2.354226E-01  1.537997E-04

 displacements (vx,vy,vz) for set TIPMARKER and time  0.6396250E+02

         2  1.610278E-03 -1.953073E-01  8.680736E-04

 displacements (vx,vy,vz) for set TIPMARKER and time  0.6446875E+02

         2  1.632872E-03 -6.007315E-03  7.463749E-04

 displacements (vx,vy,vz) for set TIPMARKER and time  0.6497500E+02

         2  1.648264E-03  1.901227E-01 -2.125041E-04

 displacements (vx,vy,vz) for set TIPMARKER and time  0.6548125E+02

         2  1.649160E-03  2.400511E-01 -1.165500E-03

 displacements (vx,vy,vz) for set TIPMARKER and time  0.6598750E+02

         2  1.668312E-03  1.040238E-01 -1.191363E-03

 displacements (vx,vy,vz) for set TIPMARKER and time  0.6649375E+02

         2  1.686594E-03 -1.134802E-01 -4.548981E-04

 displacements (vx,vy,vz) for set TIPMARKER and time  0.6700000E+02

         2  1.686008E-03 -2.461604E-01  4.694741E-04

 displacements (vx,vy,vz) for set TIPMARKER and time  0.6750625E+02

         2  1.698282E-03 -1.872209E-01  9.111475E-04

 displacements (vx,vy,vz) for set TIPMARKER and time  0.6801250E+02

         2  1.721591E-03  1.654230E-02  4.340000E-04

 displacements (vx,vy,vz) for set TIPMARKER and time  0.6851875E+02

         2  1.733361E-03  2.105617E-01 -6.325833E-04

 displacements (vx,vy,vz) for set TIPMARKER and time  0.6902500E+02

         2  1.738415E-03  2.405135E-01 -1.283542E-03

 displacements (vx,vy,vz) for set TIPMARKER and time  0.6953125E+02

         2  1.758838E-03  8.250629E-02 -8.812067E-04

 displacements (vx,vy,vz) for set TIPMARKER and time  0.7003750E+02

         2  1.774286E-03 -1.421133E-01  2.566514E-05

 displacements (vx,vy,vz) for set TIPMARKER and time  0.7054375E+02

         2  1.769427E-03 -2.582402E-01  7.070063E-04

 displacements (vx,vy,vz) for set TIPMARKER and time  0.7105000E+02

         2  1.786039E-03 -1.711280E-01  6.920545E-04

 displacements (vx,vy,vz) for set TIPMARKER and time  0.7155625E+02

         2  1.809044E-03  5.030275E-02 -9.591237E-05

 displacements (vx,vy,vz) for set TIPMARKER and time  0.7206250E+02

         2  1.816264E-03  2.357203E-01 -1.026454E-03

 displacements (vx,vy,vz) for set TIPMARKER and time  0.7256875E+02

         2  1.824952E-03  2.347434E-01 -1.156149E-03

 displacements (vx,vy,vz) for set TIPMARKER and time  0.7307500E+02

         2  1.845810E-03  4.840945E-02 -3.488629E-04

 displacements (vx,vy,vz) for set TIPMARKER and time  0.7358125E+02

         2  1.857953E-03 -1.792096E-01  5.011501E-04

 displacements (vx,vy,vz) for set TIPMARKER and time  0.7408750E+02

         2  1.856158E-03 -2.668238E-01  7.291933E-04

 displacements (vx,vy,vz) for set TIPMARKER and time  0.7459375E+02

         2  1.876459E-03 -1.423161E-01  2.598595E-04

 displacements (vx,vy,vz) for set TIPMARKER and time  0.7510000E+02

         2  1.897882E-03  9.594153E-02 -6.530209E-04

 displacements (vx,vy,vz) for set TIPMARKER and time  0.7560625E+02

         2  1.899865E-03  2.610894E-01 -1.219096E-03

 displacements (vx,vy,vz) for set TIPMARKER and time  0.7611250E+02

         2  1.911814E-03  2.170670E-01 -7.907748E-04

 displacements (vx,vy,vz) for set TIPMARKER and time  0.7661875E+02

         2  1.932471E-03 -1.619116E-04  2.081063E-04

 displacements (vx,vy,vz) for set TIPMARKER and time  0.7712500E+02

         2  1.940992E-03 -2.208531E-01  7.632698E-04

 displacements (vx,vy,vz) for set TIPMARKER and time  0.7763125E+02

         2  1.944984E-03 -2.653678E-01  5.099277E-04

 displacements (vx,vy,vz) for set TIPMARKER and time  0.7813750E+02

         2  1.967824E-03 -9.731456E-02 -2.209533E-04

 displacements (vx,vy,vz) for set TIPMARKER and time  0.7864375E+02

         2  1.986299E-03  1.504940E-01 -1.014106E-03

 displacements (vx,vy,vz) for set TIPMARKER and time  0.7915000E+02

         2  1.982889E-03  2.794336E-01 -1.130796E-03

 displacements (vx,vy,vz) for set TIPMARKER and time  0.7965625E+02

         2  1.997869E-03  1.823828E-01 -3.263914E-04

 displacements (vx,vy,vz) for set TIPMARKER and time  0.8016250E+02

         2  2.017750E-03 -6.183536E-02  5.600091E-04

 displacements (vx,vy,vz) for set TIPMARKER and time  0.8066875E+02

         2  2.022371E-03 -2.596556E-01  7.196471E-04

 displacements (vx,vy,vz) for set TIPMARKER and time  0.8117500E+02

         2  2.031791E-03 -2.472231E-01  1.870520E-04

 displacements (vx,vy,vz) for set TIPMARKER and time  0.8168125E+02

         2  2.055704E-03 -3.568691E-02 -5.395791E-04

 displacements (vx,vy,vz) for set TIPMARKER and time  0.8218750E+02

         2  2.070161E-03  2.070987E-01 -1.069425E-03

 displacements (vx,vy,vz) for set TIPMARKER and time  0.8269375E+02

         2  2.068705E-03  2.825136E-01 -8.692348E-04

 displacements (vx,vy,vz) for set TIPMARKER and time  0.8320000E+02

         2  2.086429E-03  1.283757E-01  4.002046E-06

 displacements (vx,vy,vz) for set TIPMARKER and time  0.8370625E+02

         2  2.104755E-03 -1.308789E-01  5.865042E-04

 displacements (vx,vy,vz) for set TIPMARKER and time  0.8421250E+02

         2  2.105213E-03 -2.862124E-01  4.842994E-04

 displacements (vx,vy,vz) for set TIPMARKER and time  0.8471875E+02

         2  2.119202E-03 -2.080625E-01 -8.796148E-06

 displacements (vx,vy,vz) for set TIPMARKER and time  0.8522500E+02

         2  2.142762E-03  3.842084E-02 -5.821275E-04

 displacements (vx,vy,vz) for set TIPMARKER and time  0.8573125E+02

         2  2.152805E-03  2.559857E-01 -9.260285E-04

 displacements (vx,vy,vz) for set TIPMARKER and time  0.8623750E+02

         2  2.156359E-03  2.639977E-01 -6.629574E-04

 displacements (vx,vy,vz) for set TIPMARKER and time  0.8674375E+02

         2  2.176251E-03  5.743633E-02  4.157938E-05

 displacements (vx,vy,vz) for set TIPMARKER and time  0.8725000E+02

         2  2.191896E-03 -1.976357E-01  3.965324E-04

 displacements (vx,vy,vz) for set TIPMARKER and time  0.8775625E+02

         2  2.188060E-03 -2.920750E-01  3.183650E-04

 displacements (vx,vy,vz) for set TIPMARKER and time  0.8826250E+02

         2  2.205534E-03 -1.481622E-01  5.757212E-05

 displacements (vx,vy,vz) for set TIPMARKER and time  0.8876875E+02

         2  2.227657E-03  1.162604E-01 -4.307599E-04

 displacements (vx,vy,vz) for set TIPMARKER and time  0.8927500E+02

         2  2.233530E-03  2.871370E-01 -8.135897E-04

 displacements (vx,vy,vz) for set TIPMARKER and time  0.8978125E+02

         2  2.242037E-03  2.220631E-01 -6.473493E-04

 displacements (vx,vy,vz) for set TIPMARKER and time  0.9028750E+02

         2  2.263104E-03 -2.311812E-02 -1.408765E-04

 displacements (vx,vy,vz) for set TIPMARKER and time  0.9079375E+02

         2  2.274985E-03 -2.512819E-01  2.291036E-04

 displacements (vx,vy,vz) for set TIPMARKER and time  0.9130000E+02

         2  2.273828E-03 -2.732455E-01  3.763516E-04

 displacements (vx,vy,vz) for set TIPMARKER and time  0.9180625E+02

         2  2.293821E-03 -7.333238E-02  2.641454E-04

 displacements (vx,vy,vz) for set TIPMARKER and time  0.9231250E+02

         2  2.313825E-03  1.867021E-01 -3.261923E-04

 displacements (vx,vy,vz) for set TIPMARKER and time  0.9281875E+02

         2  2.315824E-03  2.940524E-01 -8.841055E-04

 displacements (vx,vy,vz) for set TIPMARKER and time  0.9332500E+02

         2  2.328550E-03  1.607268E-01 -7.586595E-04

 displacements (vx,vy,vz) for set TIPMARKER and time  0.9383125E+02

         2  2.349388E-03 -1.026074E-01 -2.744608E-04

 displacements (vx,vy,vz) for set TIPMARKER and time  0.9433750E+02

         2  2.357060E-03 -2.833702E-01  2.781819E-04

 displacements (vx,vy,vz) for set TIPMARKER and time  0.9484375E+02

         2  2.361143E-03 -2.317355E-01  5.964237E-04

 displacements (vx,vy,vz) for set TIPMARKER and time  0.9535000E+02

         2  2.382934E-03  6.507878E-03  3.447295E-04

 displacements (vx,vy,vz) for set TIPMARKER and time  0.9585625E+02

         2  2.400403E-03  2.399408E-01 -4.757102E-04

 displacements (vx,vy,vz) for set TIPMARKER and time  0.9636250E+02

         2  2.398317E-03  2.764078E-01 -1.082727E-03

 displacements (vx,vy,vz) for set TIPMARKER and time  0.9686875E+02

         2  2.414170E-03  8.880866E-02 -7.950217E-04

 displacements (vx,vy,vz) for set TIPMARKER and time  0.9737500E+02

         2  2.433339E-03 -1.704331E-01 -1.262400E-04

 displacements (vx,vy,vz) for set TIPMARKER and time  0.9788125E+02

         2  2.437084E-03 -2.910199E-01  5.315576E-04

 displacements (vx,vy,vz) for set TIPMARKER and time  0.9838750E+02

         2  2.446209E-03 -1.747917E-01  7.424243E-04

 displacements (vx,vy,vz) for set TIPMARKER and time  0.9889375E+02
