
 displacements (vx,vy,vz) for set TIPMARKER and time  0.1000000E+00

         2  3.662233E-07 -3.380645E-05 -7.285322E-08

 displacements (vx,vy,vz) for set TIPMARKER and time  0.2000000E+00

         2  1.698629E-06 -1.650015E-04 -3.945929E-07

 displacements (vx,vy,vz) for set TIPMARKER and time  0.3000000E+00

         2  3.919517E-06 -4.517894E-04 -1.101161E-06

 displacements (vx,vy,vz) for set TIPMARKER and time  0.3250000E+00

         2  4.526467E-06 -5.522204E-04 -1.336000E-06

 displacements (vx,vy,vz) for set TIPMARKER and time  0.3500000E+00

         2  5.181796E-06 -6.647462E-04 -1.582712E-06

 displacements (vx,vy,vz) for set TIPMARKER and time  0.3750000E+00

         2  5.886647E-06 -7.898784E-04 -1.859686E-06

 displacements (vx,vy,vz) for set TIPMARKER and time  0.4125000E+00

         2  7.040679E-06 -1.001681E-03 -2.364001E-06

 displacements (vx,vy,vz) for set TIPMARKER and time  0.4500000E+00

         2  8.291079E-06 -1.241854E-03 -3.030162E-06

 displacements (vx,vy,vz) for set TIPMARKER and time  0.4875000E+00

         2  9.624981E-06 -1.508717E-03 -3.989192E-06

 displacements (vx,vy,vz) for set TIPMARKER and time  0.5437500E+00

         2  1.179526E-05 -1.959906E-03 -5.509763E-06

 displacements (vx,vy,vz) for set TIPMARKER and time  0.6000000E+00

         2  1.408673E-05 -2.483085E-03 -6.355166E-06

 displacements (vx,vy,vz) for set TIPMARKER and time  0.6562500E+00

         2  1.647734E-05 -3.096922E-03 -7.161180E-06

 displacements (vx,vy,vz) for set TIPMARKER and time  0.7125000E+00

         2  1.893807E-05 -3.819930E-03 -8.976290E-06

 displacements (vx,vy,vz) for set TIPMARKER and time  0.7687500E+00

         2  2.143131E-05 -4.668535E-03 -1.140452E-05

 displacements (vx,vy,vz) for set TIPMARKER and time  0.8250000E+00

         2  2.391305E-05 -5.655358E-03 -1.403407E-05

 displacements (vx,vy,vz) for set TIPMARKER and time  0.8390625E+00

         2  2.453252E-05 -5.924522E-03 -1.474954E-05

 displacements (vx,vy,vz) for set TIPMARKER and time  0.8531250E+00

         2  2.514849E-05 -6.202921E-03 -1.550796E-05

 displacements (vx,vy,vz) for set TIPMARKER and time  0.8583984E+00

         2  2.537954E-05 -6.309719E-03 -1.580572E-05

 displacements (vx,vy,vz) for set TIPMARKER and time  0.8636719E+00

         2  2.561027E-05 -6.417843E-03 -1.611233E-05

 displacements (vx,vy,vz) for set TIPMARKER and time  0.8715820E+00

         2  2.595462E-05 -6.582551E-03 -1.658529E-05

 displacements (vx,vy,vz) for set TIPMARKER and time  0.8834473E+00

         2  2.646941E-05 -6.835255E-03 -1.731457E-05

 displacements (vx,vy,vz) for set TIPMARKER and time  0.8953125E+00

         2  2.698051E-05 -7.094628E-03 -1.808193E-05

 displacements (vx,vy,vz) for set TIPMARKER and time  0.8982788E+00

         2  2.710821E-05 -7.160494E-03 -1.828350E-05

 displacements (vx,vy,vz) for set TIPMARKER and time  0.9012451E+00

         2  2.723620E-05 -7.226753E-03 -1.849076E-05

 displacements (vx,vy,vz) for set TIPMARKER and time  0.9056946E+00

         2  2.742698E-05 -7.326877E-03 -1.881183E-05

 displacements (vx,vy,vz) for set TIPMARKER and time  0.9073631E+00

         2  2.749837E-05 -7.364650E-03 -1.893514E-05

 displacements (vx,vy,vz) for set TIPMARKER and time  0.9090317E+00

         2  2.757005E-05 -7.402547E-03 -1.905984E-05

 displacements (vx,vy,vz) for set TIPMARKER and time  0.9115345E+00

         2  2.767754E-05 -7.459621E-03 -1.924941E-05

 displacements (vx,vy,vz) for set TIPMARKER and time  0.9152887E+00

         2  2.783771E-05 -7.545739E-03 -1.953932E-05

 displacements (vx,vy,vz) for set TIPMARKER and time  0.9209201E+00

         2  2.807743E-05 -7.676068E-03 -1.998643E-05

 displacements (vx,vy,vz) for set TIPMARKER and time  0.9293671E+00

         2  2.843577E-05 -7.874143E-03 -2.068668E-05

 displacements (vx,vy,vz) for set TIPMARKER and time  0.9420377E+00

         2  2.896822E-05 -8.176932E-03 -2.180011E-05

 displacements (vx,vy,vz) for set TIPMARKER and time  0.9610435E+00

         2  2.975623E-05 -8.643493E-03 -2.353401E-05

 displacements (vx,vy,vz) for set TIPMARKER and time  0.9895522E+00

         2  3.090506E-05 -9.370385E-03 -2.605030E-05

 displacements (vx,vy,vz) for set TIPMARKER and time  0.1032315E+01

         2  3.254331E-05 -1.051941E-02 -2.954086E-05

 displacements (vx,vy,vz) for set TIPMARKER and time  0.1096460E+01

         2  3.477906E-05 -1.236817E-02 -3.498339E-05

 displacements (vx,vy,vz) for set TIPMARKER and time  0.1160604E+01

         2  3.675511E-05 -1.436140E-02 -4.122066E-05

 displacements (vx,vy,vz) for set TIPMARKER and time  0.1224749E+01

         2  3.842872E-05 -1.649437E-02 -4.801448E-05

 displacements (vx,vy,vz) for set TIPMARKER and time  0.1240785E+01

         2  3.882591E-05 -1.704915E-02 -4.975795E-05

 displacements (vx,vy,vz) for set TIPMARKER and time  0.1256821E+01

         2  3.920417E-05 -1.761270E-02 -5.150674E-05

 displacements (vx,vy,vz) for set TIPMARKER and time  0.1280876E+01

         2  3.971837E-05 -1.847467E-02 -5.413298E-05

 displacements (vx,vy,vz) for set TIPMARKER and time  0.1316957E+01

         2  4.038132E-05 -1.980541E-02 -5.818853E-05

 displacements (vx,vy,vz) for set TIPMARKER and time  0.1371079E+01

         2  4.110864E-05 -2.188033E-02 -6.512732E-05

 displacements (vx,vy,vz) for set TIPMARKER and time  0.1425201E+01

         2  4.156785E-05 -2.403551E-02 -7.318189E-05

 displacements (vx,vy,vz) for set TIPMARKER and time  0.1479323E+01

         2  4.173468E-05 -2.624914E-02 -8.155756E-05

 displacements (vx,vy,vz) for set TIPMARKER and time  0.1560506E+01

         2  4.132014E-05 -2.961002E-02 -9.412443E-05

 displacements (vx,vy,vz) for set TIPMARKER and time  0.1682281E+01

         2  4.193283E-05 -3.451875E-02 -1.140471E-04

 displacements (vx,vy,vz) for set TIPMARKER and time  0.1727946E+01

         2  4.237018E-05 -3.627468E-02 -1.217354E-04

 displacements (vx,vy,vz) for set TIPMARKER and time  0.1773611E+01

         2  4.299453E-05 -3.796112E-02 -1.291930E-04

 displacements (vx,vy,vz) for set TIPMARKER and time  0.1842110E+01

         2  4.436313E-05 -4.033752E-02 -1.402206E-04

 displacements (vx,vy,vz) for set TIPMARKER and time  0.1944857E+01

         2  4.726114E-05 -4.347875E-02 -1.577692E-04

 displacements (vx,vy,vz) for set TIPMARKER and time  0.1970544E+01

         2  4.804458E-05 -4.417495E-02 -1.624396E-04

 displacements (vx,vy,vz) for set TIPMARKER and time  0.1996231E+01

         2  4.885668E-05 -4.483021E-02 -1.671511E-04

 displacements (vx,vy,vz) for set TIPMARKER and time  0.2021917E+01

         2  4.973274E-05 -4.544156E-02 -1.717763E-04

 displacements (vx,vy,vz) for set TIPMARKER and time  0.2047604E+01

         2  5.062216E-05 -4.600568E-02 -1.762335E-04

 displacements (vx,vy,vz) for set TIPMARKER and time  0.2086134E+01

         2  5.207034E-05 -4.675253E-02 -1.827289E-04

 displacements (vx,vy,vz) for set TIPMARKER and time  0.2143930E+01

         2  5.436988E-05 -4.761647E-02 -1.924025E-04

 displacements (vx,vy,vz) for set TIPMARKER and time  0.2230623E+01

         2  5.810089E-05 -4.826032E-02 -2.060408E-04

 displacements (vx,vy,vz) for set TIPMARKER and time  0.2236041E+01

         2  5.832391E-05 -4.827341E-02 -2.068307E-04

 displacements (vx,vy,vz) for set TIPMARKER and time  0.2241459E+01

         2  5.856499E-05 -4.828322E-02 -2.076070E-04

 displacements (vx,vy,vz) for set TIPMARKER and time  0.2249587E+01

         2  5.891455E-05 -4.829173E-02 -2.087455E-04

 displacements (vx,vy,vz) for set TIPMARKER and time  0.2261778E+01

         2  5.944310E-05 -4.829049E-02 -2.103981E-04

 displacements (vx,vy,vz) for set TIPMARKER and time  0.2280065E+01

         2  6.024781E-05 -4.825673E-02 -2.127647E-04

 displacements (vx,vy,vz) for set TIPMARKER and time  0.2307495E+01

         2  6.145312E-05 -4.813291E-02 -2.160967E-04

 displacements (vx,vy,vz) for set TIPMARKER and time  0.2334925E+01

         2  6.267240E-05 -4.791973E-02 -2.192304E-04

 displacements (vx,vy,vz) for set TIPMARKER and time  0.2362356E+01

         2  6.388407E-05 -4.761624E-02 -2.222696E-04

 displacements (vx,vy,vz) for set TIPMARKER and time  0.2389786E+01

         2  6.510288E-05 -4.722270E-02 -2.252995E-04

 displacements (vx,vy,vz) for set TIPMARKER and time  0.2430931E+01

         2  6.690395E-05 -4.646749E-02 -2.297317E-04

 displacements (vx,vy,vz) for set TIPMARKER and time  0.2472076E+01

         2  6.867879E-05 -4.552026E-02 -2.337598E-04

 displacements (vx,vy,vz) for set TIPMARKER and time  0.2513222E+01

         2  7.039925E-05 -4.438565E-02 -2.372824E-04

 displacements (vx,vy,vz) for set TIPMARKER and time  0.2517079E+01

         2  7.056180E-05 -4.426974E-02 -2.375901E-04

 displacements (vx,vy,vz) for set TIPMARKER and time  0.2520936E+01

         2  7.072312E-05 -4.415218E-02 -2.378957E-04

 displacements (vx,vy,vz) for set TIPMARKER and time  0.2526722E+01

         2  7.096073E-05 -4.397273E-02 -2.383509E-04

 displacements (vx,vy,vz) for set TIPMARKER and time  0.2535402E+01

         2  7.131981E-05 -4.369654E-02 -2.390288E-04

 displacements (vx,vy,vz) for set TIPMARKER and time  0.2548420E+01

         2  7.184815E-05 -4.326623E-02 -2.400383E-04

 displacements (vx,vy,vz) for set TIPMARKER and time  0.2567948E+01

         2  7.262864E-05 -4.258423E-02 -2.415379E-04

 displacements (vx,vy,vz) for set TIPMARKER and time  0.2597240E+01

         2  7.376108E-05 -4.147850E-02 -2.437280E-04

 displacements (vx,vy,vz) for set TIPMARKER and time  0.2641178E+01

         2  7.536269E-05 -3.963529E-02 -2.466938E-04

 displacements (vx,vy,vz) for set TIPMARKER and time  0.2707085E+01

         2  7.750034E-05 -3.646288E-02 -2.497264E-04

 displacements (vx,vy,vz) for set TIPMARKER and time  0.2772992E+01

         2  7.932470E-05 -3.280949E-02 -2.506969E-04

 displacements (vx,vy,vz) for set TIPMARKER and time  0.2838898E+01

         2  8.080230E-05 -2.869243E-02 -2.499827E-04

 displacements (vx,vy,vz) for set TIPMARKER and time  0.2937759E+01

         2  8.215003E-05 -2.177660E-02 -2.461040E-04

 displacements (vx,vy,vz) for set TIPMARKER and time  0.3086049E+01

         2  8.201191E-05 -1.030568E-02 -2.339197E-04

 displacements (vx,vy,vz) for set TIPMARKER and time  0.3308485E+01

         2  8.422591E-05  7.513711E-03 -2.057970E-04

 displacements (vx,vy,vz) for set TIPMARKER and time  0.3530920E+01

         2  9.063405E-05  2.363892E-02 -1.672051E-04

 displacements (vx,vy,vz) for set TIPMARKER and time  0.3753356E+01

         2  9.969493E-05  3.505909E-02 -1.212522E-04

 displacements (vx,vy,vz) for set TIPMARKER and time  0.3975791E+01

         2  1.093893E-04  3.892589E-02 -7.585880E-05

 displacements (vx,vy,vz) for set TIPMARKER and time  0.4198227E+01

         2  1.175360E-04  3.365439E-02 -3.720005E-05

 displacements (vx,vy,vz) for set TIPMARKER and time  0.4420663E+01

         2  1.222828E-04  1.956246E-02 -1.429600E-05

 displacements (vx,vy,vz) for set TIPMARKER and time  0.4643098E+01

         2  1.224192E-04 -1.599304E-03 -1.440468E-05

 displacements (vx,vy,vz) for set TIPMARKER and time  0.4865534E+01

         2  1.244199E-04 -2.676625E-02 -4.141853E-05

 displacements (vx,vy,vz) for set TIPMARKER and time  0.4921143E+01

         2  1.252175E-04 -3.329521E-02 -5.283983E-05

 displacements (vx,vy,vz) for set TIPMARKER and time  0.4976751E+01

         2  1.262932E-04 -3.973265E-02 -6.606956E-05

 displacements (vx,vy,vz) for set TIPMARKER and time  0.5060165E+01

         2  1.284880E-04 -4.900757E-02 -8.904614E-05

 displacements (vx,vy,vz) for set TIPMARKER and time  0.5091445E+01

         2  1.293824E-04 -5.233046E-02 -9.864374E-05

 displacements (vx,vy,vz) for set TIPMARKER and time  0.5122725E+01

         2  1.303544E-04 -5.554472E-02 -1.087856E-04

 displacements (vx,vy,vz) for set TIPMARKER and time  0.5169645E+01

         2  1.319479E-04 -6.013483E-02 -1.248927E-04

 displacements (vx,vy,vz) for set TIPMARKER and time  0.5240025E+01

         2  1.346267E-04 -6.642357E-02 -1.504718E-04

 displacements (vx,vy,vz) for set TIPMARKER and time  0.5345595E+01

         2  1.390836E-04 -7.425676E-02 -1.910318E-04

 displacements (vx,vy,vz) for set TIPMARKER and time  0.5451165E+01

         2  1.437783E-04 -7.984834E-02 -2.335373E-04
