
 displacements (vx,vy,vz) for set TIPMARKER and time  0.2000000E+00

         2  7.334833E-07 -1.322917E-04 -2.932996E-07

 displacements (vx,vy,vz) for set TIPMARKER and time  0.4000000E+00

         2  3.400542E-06 -6.333791E-04 -1.533056E-06

 displacements (vx,vy,vz) for set TIPMARKER and time  0.6000000E+00

         2  7.844990E-06 -1.706633E-03 -4.373833E-06

 displacements (vx,vy,vz) for set TIPMARKER and time  0.8000000E+00

         2  1.383896E-05 -3.582419E-03 -9.508730E-06

 displacements (vx,vy,vz) for set TIPMARKER and time  0.1000000E+01

         2  2.109508E-05 -6.602833E-03 -1.802279E-05

 displacements (vx,vy,vz) for set TIPMARKER and time  0.1200000E+01

         2  2.927635E-05 -1.109222E-02 -3.127879E-05

 displacements (vx,vy,vz) for set TIPMARKER and time  0.1400000E+01

         2  3.800820E-05 -1.713153E-02 -5.033951E-05

 displacements (vx,vy,vz) for set TIPMARKER and time  0.1600000E+01

         2  4.689162E-05 -2.462341E-02 -7.597399E-05

 displacements (vx,vy,vz) for set TIPMARKER and time  0.1800000E+01

         2  5.552453E-05 -3.340191E-02 -1.090111E-04

 displacements (vx,vy,vz) for set TIPMARKER and time  0.2000000E+01

         2  6.351339E-05 -4.306806E-02 -1.499092E-04

 displacements (vx,vy,vz) for set TIPMARKER and time  0.2200000E+01

         2  7.048974E-05 -5.293767E-02 -1.980358E-04

 displacements (vx,vy,vz) for set TIPMARKER and time  0.2400000E+01

         2  7.612332E-05 -6.224394E-02 -2.516568E-04

 displacements (vx,vy,vz) for set TIPMARKER and time  0.2600000E+01

         2  8.014051E-05 -7.025139E-02 -3.081411E-04

 displacements (vx,vy,vz) for set TIPMARKER and time  0.2800000E+01

         2  8.233008E-05 -7.621051E-02 -3.636077E-04

 displacements (vx,vy,vz) for set TIPMARKER and time  0.3000000E+01

         2  8.255235E-05 -7.942520E-02 -4.128416E-04

 displacements (vx,vy,vz) for set TIPMARKER and time  0.3200000E+01

         2  8.192438E-05 -7.949330E-02 -4.504629E-04

 displacements (vx,vy,vz) for set TIPMARKER and time  0.3400000E+01

         2  8.327459E-05 -7.634915E-02 -4.722807E-04

 displacements (vx,vy,vz) for set TIPMARKER and time  0.3600000E+01

         2  8.649344E-05 -7.013911E-02 -4.750719E-04

 displacements (vx,vy,vz) for set TIPMARKER and time  0.3800000E+01

         2  9.139178E-05 -6.125717E-02 -4.566279E-04

 displacements (vx,vy,vz) for set TIPMARKER and time  0.4000000E+01

         2  9.771780E-05 -5.039710E-02 -4.171586E-04

 displacements (vx,vy,vz) for set TIPMARKER and time  0.4200000E+01

         2  1.051680E-04 -3.841360E-02 -3.596379E-04

 displacements (vx,vy,vz) for set TIPMARKER and time  0.4400000E+01

         2  1.133991E-04 -2.613297E-02 -2.886221E-04

 displacements (vx,vy,vz) for set TIPMARKER and time  0.4600000E+01

         2  1.220335E-04 -1.434204E-02 -2.096940E-04

 displacements (vx,vy,vz) for set TIPMARKER and time  0.4800000E+01

         2  1.306872E-04 -3.798225E-03 -1.302299E-04

 displacements (vx,vy,vz) for set TIPMARKER and time  0.5000000E+01

         2  1.389761E-04  4.925742E-03 -5.880166E-05

 displacements (vx,vy,vz) for set TIPMARKER and time  0.5200000E+01

         2  1.465302E-04  1.152343E-02 -3.154124E-06

 displacements (vx,vy,vz) for set TIPMARKER and time  0.5400000E+01

         2  1.530006E-04  1.586860E-02  3.052340E-05

 displacements (vx,vy,vz) for set TIPMARKER and time  0.5600000E+01

         2  1.580867E-04  1.797739E-02  3.770146E-05

 displacements (vx,vy,vz) for set TIPMARKER and time  0.5800000E+01

         2  1.615354E-04  1.807078E-02  1.689179E-05

 displacements (vx,vy,vz) for set TIPMARKER and time  0.6000000E+01

         2  1.631547E-04  1.653937E-02 -2.901130E-05

 displacements (vx,vy,vz) for set TIPMARKER and time  0.6200000E+01

         2  1.628158E-04  1.378826E-02 -9.335850E-05

 displacements (vx,vy,vz) for set TIPMARKER and time  0.6400000E+01

         2  1.628327E-04  1.018993E-02 -1.676540E-04

 displacements (vx,vy,vz) for set TIPMARKER and time  0.6600000E+01

         2  1.648245E-04  6.118835E-03 -2.422368E-04

 displacements (vx,vy,vz) for set TIPMARKER and time  0.6800000E+01

         2  1.686470E-04  1.876991E-03 -3.066326E-04

 displacements (vx,vy,vz) for set TIPMARKER and time  0.7000000E+01

         2  1.740820E-04 -2.402119E-03 -3.518467E-04

 displacements (vx,vy,vz) for set TIPMARKER and time  0.7200000E+01

         2  1.808572E-04 -6.713640E-03 -3.726275E-04

 displacements (vx,vy,vz) for set TIPMARKER and time  0.7400000E+01

         2  1.886511E-04 -1.110133E-02 -3.675403E-04

 displacements (vx,vy,vz) for set TIPMARKER and time  0.7600000E+01

         2  1.971027E-04 -1.567509E-02 -3.382309E-04

 displacements (vx,vy,vz) for set TIPMARKER and time  0.7800000E+01

         2  2.058284E-04 -2.061439E-02 -2.900074E-04

 displacements (vx,vy,vz) for set TIPMARKER and time  0.8000000E+01

         2  2.144433E-04 -2.605358E-02 -2.319002E-04

 displacements (vx,vy,vz) for set TIPMARKER and time  0.8200000E+01

         2  2.225665E-04 -3.200252E-02 -1.744211E-04

 displacements (vx,vy,vz) for set TIPMARKER and time  0.8400000E+01

         2  2.298338E-04 -3.837410E-02 -1.276855E-04

 displacements (vx,vy,vz) for set TIPMARKER and time  0.8600000E+01

         2  2.359154E-04 -4.498001E-02 -1.009703E-04

 displacements (vx,vy,vz) for set TIPMARKER and time  0.8800000E+01

         2  2.405294E-04 -5.146947E-02 -1.013834E-04

 displacements (vx,vy,vz) for set TIPMARKER and time  0.9000000E+01

         2  2.434441E-04 -5.735084E-02 -1.315193E-04

 displacements (vx,vy,vz) for set TIPMARKER and time  0.9200000E+01

         2  2.444883E-04 -6.209869E-02 -1.888862E-04

 displacements (vx,vy,vz) for set TIPMARKER and time  0.9400000E+01

         2  2.435630E-04 -6.520563E-02 -2.668996E-04

 displacements (vx,vy,vz) for set TIPMARKER and time  0.9600000E+01

         2  2.441733E-04 -6.619803E-02 -3.557427E-04

 displacements (vx,vy,vz) for set TIPMARKER and time  0.9800000E+01

         2  2.467326E-04 -6.472535E-02 -4.428098E-04

 displacements (vx,vy,vz) for set TIPMARKER and time  0.1000000E+02

         2  2.510658E-04 -6.065456E-02 -5.145809E-04

 displacements (vx,vy,vz) for set TIPMARKER and time  0.1020000E+02

         2  2.569354E-04 -5.406904E-02 -5.596071E-04

 displacements (vx,vy,vz) for set TIPMARKER and time  0.1040000E+02

         2  2.640398E-04 -4.523903E-02 -5.699850E-04

 displacements (vx,vy,vz) for set TIPMARKER and time  0.1060000E+02

         2  2.720384E-04 -3.463347E-02 -5.418471E-04

 displacements (vx,vy,vz) for set TIPMARKER and time  0.1080000E+02

         2  2.805516E-04 -2.290094E-02 -4.760493E-04

 displacements (vx,vy,vz) for set TIPMARKER and time  0.1100000E+02

         2  2.891985E-04 -1.077536E-02 -3.788269E-04

 displacements (vx,vy,vz) for set TIPMARKER and time  0.1120000E+02

         2  2.975916E-04  9.990318E-04 -2.609374E-04

 displacements (vx,vy,vz) for set TIPMARKER and time  0.1140000E+02

         2  3.053654E-04  1.169216E-02 -1.358592E-04

 displacements (vx,vy,vz) for set TIPMARKER and time  0.1160000E+02

         2  3.121718E-04  2.064375E-02 -1.870213E-05

 displacements (vx,vy,vz) for set TIPMARKER and time  0.1180000E+02

         2  3.177132E-04  2.735081E-02  7.533767E-05

 displacements (vx,vy,vz) for set TIPMARKER and time  0.1200000E+02

         2  3.217276E-04  3.150321E-02  1.337347E-04

 displacements (vx,vy,vz) for set TIPMARKER and time  0.1220000E+02

         2  3.240153E-04  3.297181E-02  1.488721E-04

 displacements (vx,vy,vz) for set TIPMARKER and time  0.1240000E+02

         2  3.244295E-04  3.182059E-02  1.189480E-04

 displacements (vx,vy,vz) for set TIPMARKER and time  0.1260000E+02

         2  3.235815E-04  2.831853E-02  4.825017E-05

 displacements (vx,vy,vz) for set TIPMARKER and time  0.1280000E+02

         2  3.247883E-04  2.288602E-02 -5.336947E-05

 displacements (vx,vy,vz) for set TIPMARKER and time  0.1300000E+02

         2  3.279369E-04  1.601820E-02 -1.715949E-04

 displacements (vx,vy,vz) for set TIPMARKER and time  0.1320000E+02

         2  3.328214E-04  8.247490E-03 -2.897657E-04

 displacements (vx,vy,vz) for set TIPMARKER and time  0.1340000E+02

         2  3.391795E-04  1.073684E-04 -3.917078E-04

 displacements (vx,vy,vz) for set TIPMARKER and time  0.1360000E+02

         2  3.466829E-04 -7.937191E-03 -4.641357E-04

 displacements (vx,vy,vz) for set TIPMARKER and time  0.1380000E+02

         2  3.549768E-04 -1.553766E-02 -4.981213E-04

 displacements (vx,vy,vz) for set TIPMARKER and time  0.1400000E+02

         2  3.636664E-04 -2.245435E-02 -4.899746E-04

 displacements (vx,vy,vz) for set TIPMARKER and time  0.1420000E+02

         2  3.723640E-04 -2.854774E-02 -4.422209E-04

 displacements (vx,vy,vz) for set TIPMARKER and time  0.1440000E+02

         2  3.806763E-04 -3.378819E-02 -3.633258E-04

 displacements (vx,vy,vz) for set TIPMARKER and time  0.1460000E+02

         2  3.882428E-04 -3.823114E-02 -2.659733E-04

 displacements (vx,vy,vz) for set TIPMARKER and time  0.1480000E+02

         2  3.947213E-04 -4.195838E-02 -1.653124E-04

 displacements (vx,vy,vz) for set TIPMARKER and time  0.1500000E+02

         2  3.998277E-04 -4.504344E-02 -7.714529E-05

 displacements (vx,vy,vz) for set TIPMARKER and time  0.1520000E+02

         2  4.033177E-04 -4.754054E-02 -1.543688E-05

 displacements (vx,vy,vz) for set TIPMARKER and time  0.1540000E+02

         2  4.050172E-04 -4.945369E-02  1.019157E-05

 displacements (vx,vy,vz) for set TIPMARKER and time  0.1560000E+02

         2  4.048041E-04 -5.070392E-02 -4.242357E-06

 displacements (vx,vy,vz) for set TIPMARKER and time  0.1580000E+02

         2  4.044989E-04 -5.114340E-02 -5.702998E-05

 displacements (vx,vy,vz) for set TIPMARKER and time  0.1600000E+02

         2  4.062300E-04 -5.059069E-02 -1.408790E-04

 displacements (vx,vy,vz) for set TIPMARKER and time  0.1620000E+02

         2  4.098647E-04 -4.884620E-02 -2.432959E-04

 displacements (vx,vy,vz) for set TIPMARKER and time  0.1640000E+02

         2  4.151800E-04 -4.571415E-02 -3.487556E-04

 displacements (vx,vy,vz) for set TIPMARKER and time  0.1660000E+02

         2  4.218964E-04 -4.105800E-02 -4.416169E-04

 displacements (vx,vy,vz) for set TIPMARKER and time  0.1680000E+02

         2  4.296714E-04 -3.484821E-02 -5.079550E-04

 displacements (vx,vy,vz) for set TIPMARKER and time  0.1700000E+02

         2  4.381303E-04 -2.717037E-02 -5.369572E-04

 displacements (vx,vy,vz) for set TIPMARKER and time  0.1720000E+02

         2  4.468681E-04 -1.823277E-02 -5.228134E-04

 displacements (vx,vy,vz) for set TIPMARKER and time  0.1740000E+02

         2  4.554872E-04 -8.386836E-03 -4.660471E-04

 displacements (vx,vy,vz) for set TIPMARKER and time  0.1760000E+02

         2  4.635946E-04  1.883018E-03 -3.729823E-04

 displacements (vx,vy,vz) for set TIPMARKER and time  0.1780000E+02

         2  4.708297E-04  1.200649E-02 -2.547293E-04

 displacements (vx,vy,vz) for set TIPMARKER and time  0.1800000E+02

         2  4.768667E-04  2.136817E-02 -1.264226E-04

 displacements (vx,vy,vz) for set TIPMARKER and time  0.1820000E+02

         2  4.814383E-04  2.934097E-02 -5.303944E-06

 displacements (vx,vy,vz) for set TIPMARKER and time  0.1840000E+02

         2  4.843268E-04  3.534787E-02  9.227125E-05

 displacements (vx,vy,vz) for set TIPMARKER and time  0.1860000E+02

         2  4.853815E-04  3.893546E-02  1.533265E-04

 displacements (vx,vy,vz) for set TIPMARKER and time  0.1880000E+02

         2  4.845142E-04  3.981511E-02  1.698478E-04

 displacements (vx,vy,vz) for set TIPMARKER and time  0.1900000E+02

         2  4.847457E-04  3.788385E-02  1.397064E-04

 displacements (vx,vy,vz) for set TIPMARKER and time  0.1920000E+02

         2  4.870102E-04  3.324844E-02  6.754192E-05

 displacements (vx,vy,vz) for set TIPMARKER and time  0.1940000E+02

         2  4.911492E-04  2.622561E-02 -3.563742E-05

 displacements (vx,vy,vz) for set TIPMARKER and time  0.1960000E+02

         2  4.969237E-04  1.729935E-02 -1.548242E-04

 displacements (vx,vy,vz) for set TIPMARKER and time  0.1980000E+02

         2  5.040288E-04  7.067586E-03 -2.735978E-04

 displacements (vx,vy,vz) for set TIPMARKER and time  0.2000000E+02

         2  5.121087E-04 -3.800621E-03 -3.760331E-04

 displacements (vx,vy,vz) for set TIPMARKER and time  0.2020000E+02

         2  5.207675E-04 -1.462015E-02 -4.484805E-04

 displacements (vx,vy,vz) for set TIPMARKER and time  0.2040000E+02

         2  5.295970E-04 -2.475815E-02 -4.819721E-04

 displacements (vx,vy,vz) for set TIPMARKER and time  0.2060000E+02

         2  5.381896E-04 -3.368158E-02 -4.736366E-04

 displacements (vx,vy,vz) for set TIPMARKER and time  0.2080000E+02

         2  5.461574E-04 -4.098182E-02 -4.263556E-04

 displacements (vx,vy,vz) for set TIPMARKER and time  0.2100000E+02

         2  5.531386E-04 -4.639997E-02 -3.482718E-04

 displacements (vx,vy,vz) for set TIPMARKER and time  0.2120000E+02

         2  5.588209E-04 -4.984522E-02 -2.520816E-04

 displacements (vx,vy,vz) for set TIPMARKER and time  0.2140000E+02

         2  5.629428E-04 -5.138081E-02 -1.529610E-04

 displacements (vx,vy,vz) for set TIPMARKER and time  0.2160000E+02

         2  5.653058E-04 -5.118948E-02 -6.566309E-05

 displacements (vx,vy,vz) for set TIPMARKER and time  0.2180000E+02

         2  5.657730E-04 -4.953992E-02 -2.425098E-06

 displacements (vx,vy,vz) for set TIPMARKER and time  0.2200000E+02

         2  5.644632E-04 -4.674899E-02  2.840205E-05

 displacements (vx,vy,vz) for set TIPMARKER and time  0.2220000E+02

         2  5.652225E-04 -4.312960E-02  2.324420E-05

 displacements (vx,vy,vz) for set TIPMARKER and time  0.2240000E+02

         2  5.679683E-04 -3.894384E-02 -1.578176E-05

 displacements (vx,vy,vz) for set TIPMARKER and time  0.2260000E+02

         2  5.725211E-04 -3.438051E-02 -8.126444E-05

 displacements (vx,vy,vz) for set TIPMARKER and time  0.2280000E+02

         2  5.786369E-04 -2.954736E-02 -1.624971E-04

 displacements (vx,vy,vz) for set TIPMARKER and time  0.2300000E+02

         2  5.859969E-04 -2.447018E-02 -2.471747E-04

 displacements (vx,vy,vz) for set TIPMARKER and time  0.2320000E+02

         2  5.942448E-04 -1.910853E-02 -3.226459E-04

 displacements (vx,vy,vz) for set TIPMARKER and time  0.2340000E+02

         2  6.029747E-04 -1.339368E-02 -3.774031E-04

 displacements (vx,vy,vz) for set TIPMARKER and time  0.2360000E+02

         2  6.117809E-04 -7.270183E-03 -4.032652E-04

 displacements (vx,vy,vz) for set TIPMARKER and time  0.2380000E+02

         2  6.202474E-04 -7.291615E-04 -3.964760E-04

 displacements (vx,vy,vz) for set TIPMARKER and time  0.2400000E+02

         2  6.279896E-04  6.159451E-03 -3.575113E-04

 displacements (vx,vy,vz) for set TIPMARKER and time  0.2420000E+02

         2  6.346423E-04  1.321903E-02 -2.912483E-04

 displacements (vx,vy,vz) for set TIPMARKER and time  0.2440000E+02

         2  6.399051E-04  2.015976E-02 -2.067884E-04

 displacements (vx,vy,vz) for set TIPMARKER and time  0.2460000E+02

         2  6.435228E-04  2.659581E-02 -1.158775E-04

 displacements (vx,vy,vz) for set TIPMARKER and time  0.2480000E+02

         2  6.453184E-04  3.207437E-02 -3.081396E-05

 displacements (vx,vy,vz) for set TIPMARKER and time  0.2500000E+02

         2  6.451729E-04  3.611509E-02  3.709359E-05

 displacements (vx,vy,vz) for set TIPMARKER and time  0.2520000E+02

         2  6.444166E-04  3.826713E-02  7.868781E-05

 displacements (vx,vy,vz) for set TIPMARKER and time  0.2540000E+02

         2  6.457072E-04  3.817151E-02  8.840662E-05

 displacements (vx,vy,vz) for set TIPMARKER and time  0.2560000E+02

         2  6.489452E-04  3.560968E-02  6.575013E-05

 displacements (vx,vy,vz) for set TIPMARKER and time  0.2580000E+02

         2  6.539339E-04  3.053663E-02  1.503189E-05

 displacements (vx,vy,vz) for set TIPMARKER and time  0.2600000E+02

         2  6.604162E-04  2.310361E-02 -5.603548E-05

 displacements (vx,vy,vz) for set TIPMARKER and time  0.2620000E+02

         2  6.680608E-04  1.366052E-02 -1.374292E-04

 displacements (vx,vy,vz) for set TIPMARKER and time  0.2640000E+02

         2  6.764987E-04  2.729888E-03 -2.177898E-04

 displacements (vx,vy,vz) for set TIPMARKER and time  0.2660000E+02

         2  6.853166E-04 -9.034618E-03 -2.862234E-04

 displacements (vx,vy,vz) for set TIPMARKER and time  0.2680000E+02

         2  6.941042E-04 -2.089415E-02 -3.344302E-04

 displacements (vx,vy,vz) for set TIPMARKER and time  0.2700000E+02

         2  7.024463E-04 -3.208252E-02 -3.574026E-04

 displacements (vx,vy,vz) for set TIPMARKER and time  0.2720000E+02

         2  7.099606E-04 -4.187554E-02 -3.535413E-04

 displacements (vx,vy,vz) for set TIPMARKER and time  0.2740000E+02

         2  7.162930E-04 -4.965587E-02 -3.251976E-04

 displacements (vx,vy,vz) for set TIPMARKER and time  0.2760000E+02

         2  7.211537E-04 -5.496457E-02 -2.784340E-04

 displacements (vx,vy,vz) for set TIPMARKER and time  0.2780000E+02

         2  7.243021E-04 -5.754370E-02 -2.214591E-04

 displacements (vx,vy,vz) for set TIPMARKER and time  0.2800000E+02

         2  7.255730E-04 -5.736250E-02 -1.629927E-04

 displacements (vx,vy,vz) for set TIPMARKER and time  0.2820000E+02

         2  7.248653E-04 -5.460976E-02 -1.112446E-04

 displacements (vx,vy,vz) for set TIPMARKER and time  0.2840000E+02

         2  7.247014E-04 -4.965911E-02 -7.310497E-05

 displacements (vx,vy,vz) for set TIPMARKER and time  0.2860000E+02

         2  7.265375E-04 -4.302017E-02 -5.275264E-05

 displacements (vx,vy,vz) for set TIPMARKER and time  0.2880000E+02

         2  7.302454E-04 -3.527495E-02 -5.069954E-05

 displacements (vx,vy,vz) for set TIPMARKER and time  0.2900000E+02

         2  7.356146E-04 -2.700464E-02 -6.468165E-05

 displacements (vx,vy,vz) for set TIPMARKER and time  0.2920000E+02

         2  7.423735E-04 -1.872694E-02 -9.080768E-05

 displacements (vx,vy,vz) for set TIPMARKER and time  0.2940000E+02

         2  7.501899E-04 -1.085585E-02 -1.237697E-04

 displacements (vx,vy,vz) for set TIPMARKER and time  0.2960000E+02

         2  7.586895E-04 -3.674350E-03 -1.573407E-04

 displacements (vx,vy,vz) for set TIPMARKER and time  0.2980000E+02

         2  7.674698E-04  2.676248E-03 -1.859776E-04

 displacements (vx,vy,vz) for set TIPMARKER and time  0.3000000E+02

         2  7.761241E-04  8.179487E-03 -2.058643E-04

 displacements (vx,vy,vz) for set TIPMARKER and time  0.3020000E+02

         2  7.842489E-04  1.290836E-02 -2.145261E-04

 displacements (vx,vy,vz) for set TIPMARKER and time  0.3040000E+02

         2  7.914631E-04  1.698677E-02 -2.109789E-04

 displacements (vx,vy,vz) for set TIPMARKER and time  0.3060000E+02

         2  7.974256E-04  2.054820E-02 -1.964339E-04

 displacements (vx,vy,vz) for set TIPMARKER and time  0.3080000E+02

         2  8.018490E-04  2.368935E-02 -1.737795E-04

 displacements (vx,vy,vz) for set TIPMARKER and time  0.3100000E+02

         2  8.045049E-04  2.643325E-02 -1.463981E-04

 displacements (vx,vy,vz) for set TIPMARKER and time  0.3120000E+02

         2  8.052358E-04  2.871358E-02 -1.178462E-04

 displacements (vx,vy,vz) for set TIPMARKER and time  0.3140000E+02

         2  8.039620E-04  3.037442E-02 -9.176163E-05

 displacements (vx,vy,vz) for set TIPMARKER and time  0.3160000E+02

         2  8.043893E-04  3.118231E-02 -7.158436E-05

 displacements (vx,vy,vz) for set TIPMARKER and time  0.3180000E+02

         2  8.067732E-04  3.085722E-02 -5.951387E-05

 displacements (vx,vy,vz) for set TIPMARKER and time  0.3200000E+02

         2  8.109595E-04  2.911927E-02 -5.608329E-05

 displacements (vx,vy,vz) for set TIPMARKER and time  0.3220000E+02

         2  8.167281E-04  2.573802E-02 -6.086677E-05

 displacements (vx,vy,vz) for set TIPMARKER and time  0.3240000E+02

         2  8.237886E-04  2.057686E-02 -7.275644E-05

 displacements (vx,vy,vz) for set TIPMARKER and time  0.3260000E+02

         2  8.318064E-04  1.363276E-02 -8.976573E-05

 displacements (vx,vy,vz) for set TIPMARKER and time  0.3280000E+02

         2  8.403958E-04  5.065113E-03 -1.091050E-04

 displacements (vx,vy,vz) for set TIPMARKER and time  0.3300000E+02

         2  8.491598E-04 -4.795770E-03 -1.283237E-04

 displacements (vx,vy,vz) for set TIPMARKER and time  0.3320000E+02

         2  8.576867E-04 -1.546004E-02 -1.458680E-04

 displacements (vx,vy,vz) for set TIPMARKER and time  0.3340000E+02

         2  8.655848E-04 -2.630560E-02 -1.606025E-04

 displacements (vx,vy,vz) for set TIPMARKER and time  0.3360000E+02

         2  8.724768E-04 -3.662268E-02 -1.720098E-04

 displacements (vx,vy,vz) for set TIPMARKER and time  0.3380000E+02

         2  8.780409E-04 -4.567712E-02 -1.805929E-04

 displacements (vx,vy,vz) for set TIPMARKER and time  0.3400000E+02

         2  8.819991E-04 -5.278337E-02 -1.873126E-04

 displacements (vx,vy,vz) for set TIPMARKER and time  0.3420000E+02

         2  8.841464E-04 -5.737661E-02 -1.927173E-04

 displacements (vx,vy,vz) for set TIPMARKER and time  0.3440000E+02

         2  8.843377E-04 -5.907498E-02 -1.968140E-04

 displacements (vx,vy,vz) for set TIPMARKER and time  0.3460000E+02

         2  8.833755E-04 -5.772760E-02 -1.993850E-04

 displacements (vx,vy,vz) for set TIPMARKER and time  0.3480000E+02

         2  8.844130E-04 -5.343606E-02 -1.999817E-04

 displacements (vx,vy,vz) for set TIPMARKER and time  0.3500000E+02

         2  8.873549E-04 -4.653971E-02 -1.973615E-04

 displacements (vx,vy,vz) for set TIPMARKER and time  0.3520000E+02

         2  8.920150E-04 -3.757197E-02 -1.898209E-04

 displacements (vx,vy,vz) for set TIPMARKER and time  0.3540000E+02

         2  8.981534E-04 -2.720210E-02 -1.762923E-04

 displacements (vx,vy,vz) for set TIPMARKER and time  0.3560000E+02

         2  9.054617E-04 -1.616680E-02 -1.567042E-04

 displacements (vx,vy,vz) for set TIPMARKER and time  0.3580000E+02

         2  9.135996E-04 -5.192970E-03 -1.317239E-04

 displacements (vx,vy,vz) for set TIPMARKER and time  0.3600000E+02

         2  9.221805E-04  5.069553E-03 -1.028999E-04

 displacements (vx,vy,vz) for set TIPMARKER and time  0.3620000E+02

         2  9.308184E-04  1.409337E-02 -7.331584E-05

 displacements (vx,vy,vz) for set TIPMARKER and time  0.3640000E+02

         2  9.391135E-04  2.150478E-02 -4.710029E-05

 displacements (vx,vy,vz) for set TIPMARKER and time  0.3660000E+02

         2  9.466910E-04  2.710313E-02 -2.823818E-05

 displacements (vx,vy,vz) for set TIPMARKER and time  0.3680000E+02

         2  9.531901E-04  3.085715E-02 -2.014298E-05

 displacements (vx,vy,vz) for set TIPMARKER and time  0.3700000E+02

         2  9.583060E-04  3.287792E-02 -2.526397E-05

 displacements (vx,vy,vz) for set TIPMARKER and time  0.3720000E+02

         2  9.617737E-04  3.338266E-02 -4.403862E-05

 displacements (vx,vy,vz) for set TIPMARKER and time  0.3740000E+02

         2  9.634006E-04  3.265368E-02 -7.422171E-05

 displacements (vx,vy,vz) for set TIPMARKER and time  0.3760000E+02

         2  9.630537E-04  3.098708E-02 -1.114231E-04

 displacements (vx,vy,vz) for set TIPMARKER and time  0.3780000E+02

         2  9.627288E-04  2.864301E-02 -1.502317E-04

 displacements (vx,vy,vz) for set TIPMARKER and time  0.3800000E+02

         2  9.643754E-04  2.581265E-02 -1.847947E-04

 displacements (vx,vy,vz) for set TIPMARKER and time  0.3820000E+02

         2  9.678670E-04  2.260038E-02 -2.091751E-04

 displacements (vx,vy,vz) for set TIPMARKER and time  0.3840000E+02

         2  9.729968E-04  1.901746E-02 -2.187766E-04

 displacements (vx,vy,vz) for set TIPMARKER and time  0.3860000E+02

         2  9.795055E-04  1.499429E-02 -2.116669E-04

 displacements (vx,vy,vz) for set TIPMARKER and time  0.3880000E+02

         2  9.870752E-04  1.041424E-02 -1.884953E-04

 displacements (vx,vy,vz) for set TIPMARKER and time  0.3900000E+02

         2  9.953532E-04  5.154936E-03 -1.519127E-04

 displacements (vx,vy,vz) for set TIPMARKER and time  0.3920000E+02

         2  1.003954E-03 -8.709475E-04 -1.066732E-04

 displacements (vx,vy,vz) for set TIPMARKER and time  0.3940000E+02

         2  1.012491E-03 -7.673075E-03 -5.951281E-05

 displacements (vx,vy,vz) for set TIPMARKER and time  0.3960000E+02

         2  1.020574E-03 -1.514616E-02 -1.770302E-05

 displacements (vx,vy,vz) for set TIPMARKER and time  0.3980000E+02

         2  1.027834E-03 -2.305132E-02  1.217272E-05

 displacements (vx,vy,vz) for set TIPMARKER and time  0.4000000E+02

         2  1.033928E-03 -3.101900E-02  2.455932E-05

 displacements (vx,vy,vz) for set TIPMARKER and time  0.4020000E+02

         2  1.038566E-03 -3.856792E-02  1.577915E-05

 displacements (vx,vy,vz) for set TIPMARKER and time  0.4040000E+02

         2  1.041507E-03 -4.514269E-02 -1.461419E-05

 displacements (vx,vy,vz) for set TIPMARKER and time  0.4060000E+02

         2  1.042573E-03 -5.017120E-02 -6.354113E-05

 displacements (vx,vy,vz) for set TIPMARKER and time  0.4080000E+02

         2  1.041660E-03 -5.313288E-02 -1.250202E-04

 displacements (vx,vy,vz) for set TIPMARKER and time  0.4100000E+02

         2  1.041953E-03 -5.362419E-02 -1.911277E-04

 displacements (vx,vy,vz) for set TIPMARKER and time  0.4120000E+02

         2  1.044196E-03 -5.141295E-02 -2.525842E-04

 displacements (vx,vy,vz) for set TIPMARKER and time  0.4140000E+02

         2  1.048230E-03 -4.647500E-02 -2.998070E-04

 displacements (vx,vy,vz) for set TIPMARKER and time  0.4160000E+02

         2  1.053825E-03 -3.900827E-02 -3.249340E-04

 displacements (vx,vy,vz) for set TIPMARKER and time  0.4180000E+02

         2  1.060691E-03 -2.942061E-02 -3.232282E-04

 displacements (vx,vy,vz) for set TIPMARKER and time  0.4200000E+02

         2  1.068496E-03 -1.829220E-02 -2.934859E-04

 displacements (vx,vy,vz) for set TIPMARKER and time  0.4220000E+02

         2  1.076870E-03 -6.323533E-03 -2.380188E-04

 displacements (vx,vy,vz) for set TIPMARKER and time  0.4240000E+02

         2  1.085430E-03  5.723259E-03 -1.630317E-04

 displacements (vx,vy,vz) for set TIPMARKER and time  0.4260000E+02

         2  1.093789E-03  1.708792E-02 -7.827860E-05

 displacements (vx,vy,vz) for set TIPMARKER and time  0.4280000E+02

         2  1.101578E-03  2.707646E-02  4.648242E-06

 displacements (vx,vy,vz) for set TIPMARKER and time  0.4300000E+02

         2  1.108440E-03  3.511717E-02  7.387488E-05

 displacements (vx,vy,vz) for set TIPMARKER and time  0.4320000E+02

         2  1.114062E-03  4.080349E-02  1.185865E-04

 displacements (vx,vy,vz) for set TIPMARKER and time  0.4340000E+02

         2  1.118172E-03  4.392402E-02  1.309904E-04

 displacements (vx,vy,vz) for set TIPMARKER and time  0.4360000E+02

         2  1.120554E-03  4.447456E-02  1.082852E-04

 displacements (vx,vy,vz) for set TIPMARKER and time  0.4380000E+02

         2  1.121048E-03  4.264371E-02  5.327057E-05

 displacements (vx,vy,vz) for set TIPMARKER and time  0.4400000E+02

         2  1.119930E-03  3.877805E-02 -2.620790E-05

 displacements (vx,vy,vz) for set TIPMARKER and time  0.4420000E+02

         2  1.120840E-03  3.333447E-02 -1.186524E-04

 displacements (vx,vy,vz) for set TIPMARKER and time  0.4440000E+02

         2  1.123671E-03  2.682113E-02 -2.101687E-04

 displacements (vx,vy,vz) for set TIPMARKER and time  0.4460000E+02

         2  1.128228E-03  1.973487E-02 -2.864513E-04

 displacements (vx,vy,vz) for set TIPMARKER and time  0.4480000E+02

         2  1.134262E-03  1.250934E-02 -3.356536E-04

 displacements (vx,vy,vz) for set TIPMARKER and time  0.4500000E+02

         2  1.141459E-03  5.481429E-03 -3.503265E-04

 displacements (vx,vy,vz) for set TIPMARKER and time  0.4520000E+02

         2  1.149479E-03 -1.128892E-03 -3.280116E-04

 displacements (vx,vy,vz) for set TIPMARKER and time  0.4540000E+02

         2  1.157939E-03 -7.221006E-03 -2.712583E-04

 displacements (vx,vy,vz) for set TIPMARKER and time  0.4560000E+02

         2  1.166463E-03 -1.279319E-02 -1.879241E-04

 displacements (vx,vy,vz) for set TIPMARKER and time  0.4580000E+02

         2  1.174661E-03 -1.790830E-02 -9.019559E-05

 displacements (vx,vy,vz) for set TIPMARKER and time  0.4600000E+02

         2  1.182176E-03 -2.265559E-02  7.800920E-06

 displacements (vx,vy,vz) for set TIPMARKER and time  0.4620000E+02

         2  1.188658E-03 -2.711068E-02  9.184988E-05

 displacements (vx,vy,vz) for set TIPMARKER and time  0.4640000E+02

         2  1.193815E-03 -3.129567E-02  1.491504E-04

 displacements (vx,vy,vz) for set TIPMARKER and time  0.4660000E+02

         2  1.197390E-03 -3.515124E-02  1.704544E-04

 displacements (vx,vy,vz) for set TIPMARKER and time  0.4680000E+02

         2  1.199194E-03 -3.852825E-02  1.519898E-04

 displacements (vx,vy,vz) for set TIPMARKER and time  0.4700000E+02

         2  1.199087E-03 -4.119362E-02  9.588999E-05

 displacements (vx,vy,vz) for set TIPMARKER and time  0.4720000E+02

         2  1.198554E-03 -4.285103E-02  9.399203E-06

 displacements (vx,vy,vz) for set TIPMARKER and time  0.4740000E+02

         2  1.200043E-03 -4.317956E-02 -9.592975E-05

 displacements (vx,vy,vz) for set TIPMARKER and time  0.4760000E+02

         2  1.203423E-03 -4.188255E-02 -2.051280E-04

 displacements (vx,vy,vz) for set TIPMARKER and time  0.4780000E+02

         2  1.208475E-03 -3.873406E-02 -3.022616E-04

 displacements (vx,vy,vz) for set TIPMARKER and time  0.4800000E+02

         2  1.214929E-03 -3.362075E-02 -3.733838E-04

 displacements (vx,vy,vz) for set TIPMARKER and time  0.4820000E+02

         2  1.222450E-03 -2.657798E-02 -4.081864E-04

 displacements (vx,vy,vz) for set TIPMARKER and time  0.4840000E+02

         2  1.230677E-03 -1.780797E-02 -4.008831E-04

 displacements (vx,vy,vz) for set TIPMARKER and time  0.4860000E+02

         2  1.239214E-03 -7.676805E-03 -3.513727E-04

 displacements (vx,vy,vz) for set TIPMARKER and time  0.4880000E+02
