
 displacements (vx,vy,vz) for set TIPMARKER and time  0.1000000E+00

         2  2.794235E-07 -3.088598E-05 -6.402402E-08

 displacements (vx,vy,vz) for set TIPMARKER and time  0.1250000E+00

         2  4.062060E-07 -4.849948E-05 -1.020553E-07

 displacements (vx,vy,vz) for set TIPMARKER and time  0.1500000E+00

         2  5.879036E-07 -7.118164E-05 -1.523195E-07

 displacements (vx,vy,vz) for set TIPMARKER and time  0.1875000E+00

         2  9.863119E-07 -1.172113E-04 -2.586275E-07

 displacements (vx,vy,vz) for set TIPMARKER and time  0.2437500E+00

         2  1.851593E-06 -2.205896E-04 -5.138490E-07

 displacements (vx,vy,vz) for set TIPMARKER and time  0.3281250E+00

         2  3.722391E-06 -4.746094E-04 -1.181505E-06

 displacements (vx,vy,vz) for set TIPMARKER and time  0.3492188E+00

         2  4.223171E-06 -5.584806E-04 -1.407680E-06

 displacements (vx,vy,vz) for set TIPMARKER and time  0.3703125E+00

         2  4.756515E-06 -6.506303E-04 -1.658496E-06

 displacements (vx,vy,vz) for set TIPMARKER and time  0.4019531E+00

         2  5.628793E-06 -8.042978E-04 -2.082733E-06

 displacements (vx,vy,vz) for set TIPMARKER and time  0.4494141E+00

         2  7.082994E-06 -1.068009E-03 -2.825632E-06

 displacements (vx,vy,vz) for set TIPMARKER and time  0.4968750E+00

         2  8.675139E-06 -1.372413E-03 -3.697678E-06

 displacements (vx,vy,vz) for set TIPMARKER and time  0.5443359E+00

         2  1.038567E-05 -1.724116E-03 -4.709715E-06

 displacements (vx,vy,vz) for set TIPMARKER and time  0.5562012E+00

         2  1.082280E-05 -1.820278E-03 -4.986035E-06

 displacements (vx,vy,vz) for set TIPMARKER and time  0.5680664E+00

         2  1.126142E-05 -1.919891E-03 -5.271874E-06

 displacements (vx,vy,vz) for set TIPMARKER and time  0.5858643E+00

         2  1.194206E-05 -2.075562E-03 -5.718162E-06

 displacements (vx,vy,vz) for set TIPMARKER and time  0.6125610E+00

         2  1.298476E-05 -2.322966E-03 -6.426983E-06

 displacements (vx,vy,vz) for set TIPMARKER and time  0.6526062E+00

         2  1.461647E-05 -2.728928E-03 -7.589406E-06

 displacements (vx,vy,vz) for set TIPMARKER and time  0.7126740E+00

         2  1.716419E-05 -3.433160E-03 -9.609780E-06

 displacements (vx,vy,vz) for set TIPMARKER and time  0.7727417E+00

         2  1.978817E-05 -4.272381E-03 -1.202606E-05

 displacements (vx,vy,vz) for set TIPMARKER and time  0.8328094E+00

         2  2.244466E-05 -5.263442E-03 -1.489778E-05

 displacements (vx,vy,vz) for set TIPMARKER and time  0.8928772E+00

         2  2.510372E-05 -6.411786E-03 -1.826798E-05

 displacements (vx,vy,vz) for set TIPMARKER and time  0.9078941E+00

         2  2.576585E-05 -6.723407E-03 -1.919169E-05

 displacements (vx,vy,vz) for set TIPMARKER and time  0.9229111E+00

         2  2.642752E-05 -7.044855E-03 -2.014911E-05

 displacements (vx,vy,vz) for set TIPMARKER and time  0.9454365E+00

         2  2.741272E-05 -7.545568E-03 -2.164926E-05

 displacements (vx,vy,vz) for set TIPMARKER and time  0.9792246E+00

         2  2.887182E-05 -8.338938E-03 -2.404561E-05

 displacements (vx,vy,vz) for set TIPMARKER and time  0.9918951E+00

         2  2.941578E-05 -8.649697E-03 -2.498996E-05

 displacements (vx,vy,vz) for set TIPMARKER and time  0.1004566E+01

         2  2.995580E-05 -8.967625E-03 -2.595926E-05

 displacements (vx,vy,vz) for set TIPMARKER and time  0.1023571E+01

         2  3.075731E-05 -9.457173E-03 -2.745813E-05

 displacements (vx,vy,vz) for set TIPMARKER and time  0.1030699E+01

         2  3.105591E-05 -9.644522E-03 -2.803375E-05

 displacements (vx,vy,vz) for set TIPMARKER and time  0.1037826E+01

         2  3.135412E-05 -9.833864E-03 -2.861666E-05

 displacements (vx,vy,vz) for set TIPMARKER and time  0.1048517E+01

         2  3.179659E-05 -1.012157E-02 -2.950451E-05

 displacements (vx,vy,vz) for set TIPMARKER and time  0.1064553E+01

         2  3.245309E-05 -1.056132E-02 -3.086639E-05

 displacements (vx,vy,vz) for set TIPMARKER and time  0.1088607E+01

         2  3.341672E-05 -1.123906E-02 -3.297749E-05

 displacements (vx,vy,vz) for set TIPMARKER and time  0.1124688E+01

         2  3.481048E-05 -1.229618E-02 -3.629858E-05

 displacements (vx,vy,vz) for set TIPMARKER and time  0.1178810E+01

         2  3.676432E-05 -1.397404E-02 -4.164043E-05

 displacements (vx,vy,vz) for set TIPMARKER and time  0.1259993E+01

         2  3.932565E-05 -1.670108E-02 -5.048833E-05

 displacements (vx,vy,vz) for set TIPMARKER and time  0.1280289E+01

         2  3.993989E-05 -1.742241E-02 -5.285730E-05

 displacements (vx,vy,vz) for set TIPMARKER and time  0.1300585E+01

         2  4.052876E-05 -1.815927E-02 -5.528779E-05

 displacements (vx,vy,vz) for set TIPMARKER and time  0.1331029E+01

         2  4.134585E-05 -1.929233E-02 -5.904665E-05

 displacements (vx,vy,vz) for set TIPMARKER and time  0.1376694E+01

         2  4.242466E-05 -2.105177E-02 -6.495400E-05

 displacements (vx,vy,vz) for set TIPMARKER and time  0.1445192E+01

         2  4.367454E-05 -2.381533E-02 -7.443893E-05

 displacements (vx,vy,vz) for set TIPMARKER and time  0.1547939E+01

         2  4.466146E-05 -2.815722E-02 -8.992644E-05

 displacements (vx,vy,vz) for set TIPMARKER and time  0.1702060E+01

         2  4.398655E-05 -3.473341E-02 -1.151413E-04

 displacements (vx,vy,vz) for set TIPMARKER and time  0.1856181E+01

         2  4.493948E-05 -4.090946E-02 -1.418428E-04

 displacements (vx,vy,vz) for set TIPMARKER and time  0.2010302E+01

         2  4.791800E-05 -4.618428E-02 -1.692328E-04

 displacements (vx,vy,vz) for set TIPMARKER and time  0.2164423E+01

         2  5.261425E-05 -5.003167E-02 -1.962689E-04

 displacements (vx,vy,vz) for set TIPMARKER and time  0.2318544E+01

         2  5.858544E-05 -5.184436E-02 -2.209917E-04

 displacements (vx,vy,vz) for set TIPMARKER and time  0.2472665E+01

         2  6.527650E-05 -5.107694E-02 -2.409471E-04

 displacements (vx,vy,vz) for set TIPMARKER and time  0.2626786E+01

         2  7.209213E-05 -4.747720E-02 -2.548414E-04

 displacements (vx,vy,vz) for set TIPMARKER and time  0.2665316E+01

         2  7.377568E-05 -4.613260E-02 -2.573350E-04

 displacements (vx,vy,vz) for set TIPMARKER and time  0.2703846E+01

         2  7.544075E-05 -4.461547E-02 -2.594241E-04

 displacements (vx,vy,vz) for set TIPMARKER and time  0.2761642E+01

         2  7.784184E-05 -4.202026E-02 -2.617863E-04

 displacements (vx,vy,vz) for set TIPMARKER and time  0.2848335E+01

         2  8.118060E-05 -3.742269E-02 -2.634703E-04

 displacements (vx,vy,vz) for set TIPMARKER and time  0.2935028E+01

         2  8.413274E-05 -3.201174E-02 -2.626564E-04

 displacements (vx,vy,vz) for set TIPMARKER and time  0.3021721E+01

         2  8.662987E-05 -2.584995E-02 -2.590811E-04

 displacements (vx,vy,vz) for set TIPMARKER and time  0.3108414E+01

         2  8.857466E-05 -1.904460E-02 -2.527613E-04

 displacements (vx,vy,vz) for set TIPMARKER and time  0.3238453E+01

         2  9.011902E-05 -8.028462E-03 -2.387145E-04

 displacements (vx,vy,vz) for set TIPMARKER and time  0.3433512E+01

         2  8.897154E-05  9.013966E-03 -2.086352E-04

 displacements (vx,vy,vz) for set TIPMARKER and time  0.3506660E+01

         2  8.891044E-05  1.529988E-02 -1.949307E-04

 displacements (vx,vy,vz) for set TIPMARKER and time  0.3579807E+01

         2  8.932837E-05  2.135618E-02 -1.802970E-04

 displacements (vx,vy,vz) for set TIPMARKER and time  0.3689528E+01

         2  9.101959E-05  2.975520E-02 -1.600461E-04

 displacements (vx,vy,vz) for set TIPMARKER and time  0.3854109E+01

         2  9.558717E-05  3.994912E-02 -1.281267E-04

 displacements (vx,vy,vz) for set TIPMARKER and time  0.4018690E+01

         2  1.016614E-04  4.613920E-02 -9.037439E-05

 displacements (vx,vy,vz) for set TIPMARKER and time  0.4059835E+01

         2  1.032589E-04  4.695048E-02 -8.106666E-05

 displacements (vx,vy,vz) for set TIPMARKER and time  0.4100981E+01

         2  1.049152E-04  4.744081E-02 -7.223024E-05

 displacements (vx,vy,vz) for set TIPMARKER and time  0.4116410E+01

         2  1.055501E-04  4.754130E-02 -6.895542E-05

 displacements (vx,vy,vz) for set TIPMARKER and time  0.4131840E+01

         2  1.061771E-04  4.759641E-02 -6.568179E-05

 displacements (vx,vy,vz) for set TIPMARKER and time  0.4154984E+01

         2  1.071546E-04  4.759420E-02 -6.083629E-05

 displacements (vx,vy,vz) for set TIPMARKER and time  0.4189700E+01

         2  1.086232E-04  4.740115E-02 -5.410102E-05

 displacements (vx,vy,vz) for set TIPMARKER and time  0.4241775E+01

         2  1.109042E-04  4.668249E-02 -4.630066E-05

 displacements (vx,vy,vz) for set TIPMARKER and time  0.4319887E+01

         2  1.143580E-04  4.462084E-02 -3.946263E-05

 displacements (vx,vy,vz) for set TIPMARKER and time  0.4349179E+01

         2  1.156625E-04  4.353869E-02 -3.768465E-05

 displacements (vx,vy,vz) for set TIPMARKER and time  0.4378471E+01

         2  1.169389E-04  4.228470E-02 -3.549133E-05

 displacements (vx,vy,vz) for set TIPMARKER and time  0.4422408E+01

         2  1.188275E-04  4.007741E-02 -3.151911E-05

 displacements (vx,vy,vz) for set TIPMARKER and time  0.4488315E+01

         2  1.215398E-04  3.603197E-02 -2.603782E-05

 displacements (vx,vy,vz) for set TIPMARKER and time  0.4554222E+01

         2  1.241090E-04  3.112545E-02 -2.159406E-05

 displacements (vx,vy,vz) for set TIPMARKER and time  0.4620129E+01

         2  1.264622E-04  2.540958E-02 -1.724719E-05

 displacements (vx,vy,vz) for set TIPMARKER and time  0.4644844E+01

         2  1.273125E-04  2.307065E-02 -1.568403E-05

 displacements (vx,vy,vz) for set TIPMARKER and time  0.4669559E+01

         2  1.281265E-04  2.063476E-02 -1.447515E-05

 displacements (vx,vy,vz) for set TIPMARKER and time  0.4706632E+01

         2  1.292723E-04  1.681326E-02 -1.391885E-05

 displacements (vx,vy,vz) for set TIPMARKER and time  0.4762241E+01

         2  1.308088E-04  1.074274E-02 -1.680933E-05

 displacements (vx,vy,vz) for set TIPMARKER and time  0.4845654E+01

         2  1.326273E-04  1.002770E-03 -2.720381E-05

 displacements (vx,vy,vz) for set TIPMARKER and time  0.4970774E+01

         2  1.340588E-04 -1.464477E-02 -4.927663E-05

 displacements (vx,vy,vz) for set TIPMARKER and time  0.5158454E+01

         2  1.329993E-04 -3.903808E-02 -9.230596E-05

 displacements (vx,vy,vz) for set TIPMARKER and time  0.5228834E+01

         2  1.329770E-04 -4.813656E-02 -1.106382E-04

 displacements (vx,vy,vz) for set TIPMARKER and time  0.5299214E+01

         2  1.333948E-04 -5.692833E-02 -1.301356E-04

 displacements (vx,vy,vz) for set TIPMARKER and time  0.5404784E+01

         2  1.350149E-04 -6.908401E-02 -1.673163E-04

 displacements (vx,vy,vz) for set TIPMARKER and time  0.5563139E+01

         2  1.394341E-04 -8.385772E-02 -2.362356E-04

 displacements (vx,vy,vz) for set TIPMARKER and time  0.5602728E+01

         2  1.406397E-04 -8.678806E-02 -2.540369E-04

 displacements (vx,vy,vz) for set TIPMARKER and time  0.5642316E+01

         2  1.419439E-04 -8.936611E-02 -2.710838E-04

 displacements (vx,vy,vz) for set TIPMARKER and time  0.5681905E+01

         2  1.433285E-04 -9.157601E-02 -2.874977E-04

 displacements (vx,vy,vz) for set TIPMARKER and time  0.5741288E+01

         2  1.455889E-04 -9.417119E-02 -3.108239E-04

 displacements (vx,vy,vz) for set TIPMARKER and time  0.5763557E+01

         2  1.464525E-04 -9.491709E-02 -3.190673E-04

 displacements (vx,vy,vz) for set TIPMARKER and time  0.5785826E+01

         2  1.473415E-04 -9.553640E-02 -3.269058E-04

 displacements (vx,vy,vz) for set TIPMARKER and time  0.5819229E+01

         2  1.487026E-04 -9.622406E-02 -3.378662E-04

 displacements (vx,vy,vz) for set TIPMARKER and time  0.5869333E+01

         2  1.508254E-04 -9.669560E-02 -3.534141E-04

 displacements (vx,vy,vz) for set TIPMARKER and time  0.5944490E+01

         2  1.541351E-04 -9.607701E-02 -3.773151E-04

 displacements (vx,vy,vz) for set TIPMARKER and time  0.6057225E+01

         2  1.591956E-04 -9.204984E-02 -4.131560E-04

 displacements (vx,vy,vz) for set TIPMARKER and time  0.6169960E+01

         2  1.640671E-04 -8.434870E-02 -4.424868E-04

 displacements (vx,vy,vz) for set TIPMARKER and time  0.6282695E+01

         2  1.684982E-04 -7.325389E-02 -4.599158E-04

 displacements (vx,vy,vz) for set TIPMARKER and time  0.6395431E+01

         2  1.722495E-04 -5.923272E-02 -4.628021E-04

 displacements (vx,vy,vz) for set TIPMARKER and time  0.6508166E+01

         2  1.751389E-04 -4.282828E-02 -4.532032E-04

 displacements (vx,vy,vz) for set TIPMARKER and time  0.6677269E+01

         2  1.772022E-04 -1.509252E-02 -4.278566E-04

 displacements (vx,vy,vz) for set TIPMARKER and time  0.6930923E+01

         2  1.765358E-04  2.837457E-02 -3.592773E-04

 displacements (vx,vy,vz) for set TIPMARKER and time  0.7311404E+01

         2  1.871868E-04  7.863229E-02 -1.942668E-04

 displacements (vx,vy,vz) for set TIPMARKER and time  0.7691885E+01

         2  2.035642E-04  9.145444E-02 -2.674768E-05

 displacements (vx,vy,vz) for set TIPMARKER and time  0.8072366E+01

         2  2.169232E-04  5.817571E-02  8.355172E-05

 displacements (vx,vy,vz) for set TIPMARKER and time  0.8452847E+01

         2  2.198154E-04 -1.035194E-02  8.104761E-05

 displacements (vx,vy,vz) for set TIPMARKER and time  0.8833328E+01

         2  2.252679E-04 -8.476023E-02 -8.292613E-05

 displacements (vx,vy,vz) for set TIPMARKER and time  0.9213810E+01

         2  2.402246E-04 -1.293902E-01 -3.230589E-04

 displacements (vx,vy,vz) for set TIPMARKER and time  0.9308930E+01

         2  2.442644E-04 -1.328640E-01 -3.783348E-04

 displacements (vx,vy,vz) for set TIPMARKER and time  0.9404050E+01

         2  2.484973E-04 -1.325428E-01 -4.289273E-04

 displacements (vx,vy,vz) for set TIPMARKER and time  0.9546731E+01

         2  2.548781E-04 -1.246779E-01 -4.976941E-04

 displacements (vx,vy,vz) for set TIPMARKER and time  0.9582401E+01

         2  2.564712E-04 -1.213122E-01 -5.130829E-04

 displacements (vx,vy,vz) for set TIPMARKER and time  0.9618071E+01

         2  2.580212E-04 -1.173890E-01 -5.270485E-04

 displacements (vx,vy,vz) for set TIPMARKER and time  0.9671576E+01

         2  2.602812E-04 -1.104894E-01 -5.446308E-04

 displacements (vx,vy,vz) for set TIPMARKER and time  0.9751834E+01

         2  2.633712E-04 -9.800198E-02 -5.621497E-04

 displacements (vx,vy,vz) for set TIPMARKER and time  0.9872220E+01

         2  2.671848E-04 -7.516112E-02 -5.679035E-04

 displacements (vx,vy,vz) for set TIPMARKER and time  0.1005280E+02

         2  2.704217E-04 -3.430933E-02 -5.432579E-04

 displacements (vx,vy,vz) for set TIPMARKER and time  0.1023338E+02

         2  2.707654E-04  1.091548E-02 -4.934661E-04

 displacements (vx,vy,vz) for set TIPMARKER and time  0.1027853E+02

         2  2.706416E-04  2.250692E-02 -4.776156E-04

 displacements (vx,vy,vz) for set TIPMARKER and time  0.1032367E+02

         2  2.703325E-04  3.404206E-02 -4.598857E-04

 displacements (vx,vy,vz) for set TIPMARKER and time  0.1039139E+02

         2  2.702151E-04  5.102461E-02 -4.309219E-04

 displacements (vx,vy,vz) for set TIPMARKER and time  0.1045911E+02

         2  2.705260E-04  6.735841E-02 -3.982513E-04

 displacements (vx,vy,vz) for set TIPMARKER and time  0.1052682E+02

         2  2.711610E-04  8.271640E-02 -3.570548E-04

 displacements (vx,vy,vz) for set TIPMARKER and time  0.1055222E+02

         2  2.714447E-04  8.816684E-02 -3.392184E-04

 displacements (vx,vy,vz) for set TIPMARKER and time  0.1057761E+02

         2  2.717682E-04  9.342048E-02 -3.223003E-04

 displacements (vx,vy,vz) for set TIPMARKER and time  0.1061570E+02

         2  2.724548E-04  1.008997E-01 -3.010227E-04

 displacements (vx,vy,vz) for set TIPMARKER and time  0.1067284E+02

         2  2.737058E-04  1.111381E-01 -2.704415E-04

 displacements (vx,vy,vz) for set TIPMARKER and time  0.1075854E+02

         2  2.760965E-04  1.241023E-01 -2.236573E-04

 displacements (vx,vy,vz) for set TIPMARKER and time  0.1084425E+02

         2  2.789567E-04  1.339845E-01 -1.820521E-04

 displacements (vx,vy,vz) for set TIPMARKER and time  0.1086567E+02

         2  2.797087E-04  1.359502E-01 -1.721173E-04

 displacements (vx,vy,vz) for set TIPMARKER and time  0.1088710E+02

         2  2.804631E-04  1.377045E-01 -1.623288E-04

 displacements (vx,vy,vz) for set TIPMARKER and time  0.1091924E+02

         2  2.816869E-04  1.399298E-01 -1.486418E-04

 displacements (vx,vy,vz) for set TIPMARKER and time  0.1093129E+02

         2  2.821391E-04  1.406366E-01 -1.434660E-04

 displacements (vx,vy,vz) for set TIPMARKER and time  0.1094334E+02

         2  2.826099E-04  1.412725E-01 -1.378960E-04

 displacements (vx,vy,vz) for set TIPMARKER and time  0.1096142E+02

         2  2.833050E-04  1.420912E-01 -1.289213E-04

 displacements (vx,vy,vz) for set TIPMARKER and time  0.1098854E+02

         2  2.843745E-04  1.430097E-01 -1.139822E-04

 displacements (vx,vy,vz) for set TIPMARKER and time  0.1102922E+02

         2  2.860022E-04  1.436734E-01 -9.047320E-05

 displacements (vx,vy,vz) for set TIPMARKER and time  0.1109023E+02

         2  2.885834E-04  1.430183E-01 -6.014940E-05

 displacements (vx,vy,vz) for set TIPMARKER and time  0.1111311E+02

         2  2.895713E-04  1.422537E-01 -5.040868E-05

 displacements (vx,vy,vz) for set TIPMARKER and time  0.1113599E+02

         2  2.905577E-04  1.412021E-01 -4.047207E-05

 displacements (vx,vy,vz) for set TIPMARKER and time  0.1117031E+02

         2  2.920402E-04  1.390888E-01 -2.567780E-05

 displacements (vx,vy,vz) for set TIPMARKER and time  0.1122179E+02

         2  2.942729E-04  1.347337E-01 -6.187938E-06

 displacements (vx,vy,vz) for set TIPMARKER and time  0.1129902E+02

         2  2.975874E-04  1.256538E-01  1.506728E-05

 displacements (vx,vy,vz) for set TIPMARKER and time  0.1137624E+02

         2  3.008086E-04  1.137359E-01  2.500869E-05

 displacements (vx,vy,vz) for set TIPMARKER and time  0.1139554E+02

         2  3.016174E-04  1.103408E-01  2.571277E-05

 displacements (vx,vy,vz) for set TIPMARKER and time  0.1141485E+02

         2  3.024038E-04  1.067910E-01  2.660644E-05

 displacements (vx,vy,vz) for set TIPMARKER and time  0.1144381E+02

         2  3.035361E-04  1.011872E-01  2.920129E-05

 displacements (vx,vy,vz) for set TIPMARKER and time  0.1148724E+02

         2  3.051298E-04  9.218231E-02  3.371570E-05

 displacements (vx,vy,vz) for set TIPMARKER and time  0.1155240E+02

         2  3.073254E-04  7.742026E-02  3.653974E-05

 displacements (vx,vy,vz) for set TIPMARKER and time  0.1165013E+02

         2  3.100191E-04  5.278077E-02  3.383092E-05

 displacements (vx,vy,vz) for set TIPMARKER and time  0.1179673E+02

         2  3.123962E-04  1.164566E-02  1.251890E-05

 displacements (vx,vy,vz) for set TIPMARKER and time  0.1185171E+02

         2  3.130462E-04 -4.700554E-03 -4.626627E-06

 displacements (vx,vy,vz) for set TIPMARKER and time  0.1190668E+02

         2  3.134574E-04 -2.122926E-02 -2.865649E-05

 displacements (vx,vy,vz) for set TIPMARKER and time  0.1198915E+02

         2  3.134495E-04 -4.587214E-02 -7.143724E-05

 displacements (vx,vy,vz) for set TIPMARKER and time  0.1207161E+02

         2  3.131180E-04 -6.978781E-02 -1.153382E-04

 displacements (vx,vy,vz) for set TIPMARKER and time  0.1215407E+02

         2  3.133571E-04 -9.239697E-02 -1.585422E-04

 displacements (vx,vy,vz) for set TIPMARKER and time  0.1227776E+02

         2  3.150328E-04 -1.226949E-01 -2.238676E-04

 displacements (vx,vy,vz) for set TIPMARKER and time  0.1246331E+02

         2  3.201383E-04 -1.568609E-01 -3.189146E-04

 displacements (vx,vy,vz) for set TIPMARKER and time  0.1264885E+02

         2  3.272710E-04 -1.736314E-01 -4.033814E-04

 displacements (vx,vy,vz) for set TIPMARKER and time  0.1283439E+02

         2  3.354732E-04 -1.700584E-01 -4.479405E-04

 displacements (vx,vy,vz) for set TIPMARKER and time  0.1301993E+02

         2  3.436160E-04 -1.462282E-01 -4.413944E-04

 displacements (vx,vy,vz) for set TIPMARKER and time  0.1320547E+02

         2  3.506543E-04 -1.049103E-01 -4.021941E-04

 displacements (vx,vy,vz) for set TIPMARKER and time  0.1339101E+02

         2  3.555113E-04 -5.048993E-02 -3.355162E-04

 displacements (vx,vy,vz) for set TIPMARKER and time  0.1357655E+02

         2  3.574280E-04  1.109138E-02 -2.527015E-04

 displacements (vx,vy,vz) for set TIPMARKER and time  0.1362294E+02

         2  3.576924E-04  2.692020E-02 -2.316055E-04

 displacements (vx,vy,vz) for set TIPMARKER and time  0.1366932E+02

         2  3.577550E-04  4.260789E-02 -2.114400E-04

 displacements (vx,vy,vz) for set TIPMARKER and time  0.1373890E+02

         2  3.574077E-04  6.554792E-02 -1.847159E-04

 displacements (vx,vy,vz) for set TIPMARKER and time  0.1384327E+02

         2  3.573066E-04  9.779302E-02 -1.547264E-04

 displacements (vx,vy,vz) for set TIPMARKER and time  0.1399982E+02

         2  3.593563E-04  1.389246E-01 -1.289163E-04

 displacements (vx,vy,vz) for set TIPMARKER and time  0.1423464E+02

         2  3.664960E-04  1.776816E-01 -1.116045E-04

 displacements (vx,vy,vz) for set TIPMARKER and time  0.1446947E+02

         2  3.762995E-04  1.824503E-01 -1.314275E-04

 displacements (vx,vy,vz) for set TIPMARKER and time  0.1452817E+02

         2  3.788857E-04  1.778323E-01 -1.455870E-04

 displacements (vx,vy,vz) for set TIPMARKER and time  0.1454285E+02

         2  3.795380E-04  1.763075E-01 -1.496342E-04

 displacements (vx,vy,vz) for set TIPMARKER and time  0.1455753E+02

         2  3.801941E-04  1.746367E-01 -1.538074E-04

 displacements (vx,vy,vz) for set TIPMARKER and time  0.1457954E+02

         2  3.811842E-04  1.718596E-01 -1.603140E-04

 displacements (vx,vy,vz) for set TIPMARKER and time  0.1461256E+02

         2  3.826812E-04  1.670947E-01 -1.706164E-04

 displacements (vx,vy,vz) for set TIPMARKER and time  0.1466210E+02

         2  3.849302E-04  1.586417E-01 -1.867401E-04

 displacements (vx,vy,vz) for set TIPMARKER and time  0.1473640E+02

         2  3.882374E-04  1.431984E-01 -2.097166E-04

 displacements (vx,vy,vz) for set TIPMARKER and time  0.1484785E+02

         2  3.928292E-04  1.144688E-01 -2.390541E-04

 displacements (vx,vy,vz) for set TIPMARKER and time  0.1488964E+02

         2  3.944744E-04  1.021229E-01 -2.492378E-04

 displacements (vx,vy,vz) for set TIPMARKER and time  0.1493144E+02

         2  3.960456E-04  8.903562E-02 -2.605078E-04

 displacements (vx,vy,vz) for set TIPMARKER and time  0.1499413E+02

         2  3.982110E-04  6.819684E-02 -2.807570E-04

 displacements (vx,vy,vz) for set TIPMARKER and time  0.1508816E+02

         2  4.009163E-04  3.479972E-02 -3.173804E-04

 displacements (vx,vy,vz) for set TIPMARKER and time  0.1522922E+02

         2  4.034322E-04 -1.795410E-02 -3.789371E-04

 displacements (vx,vy,vz) for set TIPMARKER and time  0.1544080E+02

         2  4.029690E-04 -9.523319E-02 -4.510214E-04

 displacements (vx,vy,vz) for set TIPMARKER and time  0.1552014E+02

         2  4.025139E-04 -1.219141E-01 -4.644477E-04

 displacements (vx,vy,vz) for set TIPMARKER and time  0.1559948E+02

         2  4.025947E-04 -1.461688E-01 -4.703949E-04

 displacements (vx,vy,vz) for set TIPMARKER and time  0.1571850E+02

         2  4.039572E-04 -1.766519E-01 -4.698991E-04

 displacements (vx,vy,vz) for set TIPMARKER and time  0.1589702E+02

         2  4.085267E-04 -2.058749E-01 -4.366795E-04

 displacements (vx,vy,vz) for set TIPMARKER and time  0.1607554E+02

         2  4.150432E-04 -2.122010E-01 -3.497399E-04

 displacements (vx,vy,vz) for set TIPMARKER and time  0.1625406E+02

         2  4.227208E-04 -1.943576E-01 -2.164760E-04

 displacements (vx,vy,vz) for set TIPMARKER and time  0.1643259E+02

         2  4.305967E-04 -1.542515E-01 -6.936155E-05

 displacements (vx,vy,vz) for set TIPMARKER and time  0.1661111E+02

         2  4.375939E-04 -9.632171E-02  6.570245E-05

 displacements (vx,vy,vz) for set TIPMARKER and time  0.1678963E+02

         2  4.426693E-04 -2.672758E-02  1.775225E-04

 displacements (vx,vy,vz) for set TIPMARKER and time  0.1685657E+02

         2  4.442045E-04  1.105298E-03  2.099077E-04

 displacements (vx,vy,vz) for set TIPMARKER and time  0.1692352E+02

         2  4.453934E-04  2.907818E-02  2.316245E-04

 displacements (vx,vy,vz) for set TIPMARKER and time  0.1694862E+02

         2  4.457934E-04  3.951696E-02  2.363304E-04

 displacements (vx,vy,vz) for set TIPMARKER and time  0.1697373E+02

         2  4.461444E-04  4.988123E-02  2.389502E-04

 displacements (vx,vy,vz) for set TIPMARKER and time  0.1701139E+02

         2  4.465555E-04  6.522457E-02  2.388873E-04

 displacements (vx,vy,vz) for set TIPMARKER and time  0.1706787E+02

         2  4.469114E-04  8.760715E-02  2.296206E-04

 displacements (vx,vy,vz) for set TIPMARKER and time  0.1708905E+02

         2  4.470089E-04  9.576829E-02  2.232948E-04

 displacements (vx,vy,vz) for set TIPMARKER and time  0.1711024E+02

         2  4.470733E-04  1.037784E-01  2.154842E-04

 displacements (vx,vy,vz) for set TIPMARKER and time  0.1714201E+02

         2  4.470749E-04  1.154809E-01  2.012989E-04

 displacements (vx,vy,vz) for set TIPMARKER and time  0.1718967E+02

         2  4.468793E-04  1.322474E-01  1.755913E-04

 displacements (vx,vy,vz) for set TIPMARKER and time  0.1726116E+02

         2  4.467375E-04  1.553620E-01  1.301722E-04

 displacements (vx,vy,vz) for set TIPMARKER and time  0.1736839E+02

         2  4.475498E-04  1.846029E-01  5.002537E-05

 displacements (vx,vy,vz) for set TIPMARKER and time  0.1752924E+02

         2  4.509682E-04  2.136663E-01 -1.012721E-04

 displacements (vx,vy,vz) for set TIPMARKER and time  0.1769009E+02

         2  4.563586E-04  2.223344E-01 -2.902621E-04

 displacements (vx,vy,vz) for set TIPMARKER and time  0.1785094E+02

         2  4.631776E-04  2.093541E-01 -4.920941E-04

 displacements (vx,vy,vz) for set TIPMARKER and time  0.1801180E+02

         2  4.706461E-04  1.759939E-01 -6.654811E-04

 displacements (vx,vy,vz) for set TIPMARKER and time  0.1825307E+02

         2  4.811870E-04  9.589264E-02 -8.442357E-04

 displacements (vx,vy,vz) for set TIPMARKER and time  0.1831339E+02

         2  4.836764E-04  7.125098E-02 -8.763538E-04

 displacements (vx,vy,vz) for set TIPMARKER and time  0.1837371E+02

         2  4.859998E-04  4.540364E-02 -9.052418E-04

 displacements (vx,vy,vz) for set TIPMARKER and time  0.1839633E+02

         2  4.868422E-04  3.545847E-02 -9.150136E-04

 displacements (vx,vy,vz) for set TIPMARKER and time  0.1841895E+02

         2  4.876531E-04  2.540852E-02 -9.240112E-04

 displacements (vx,vy,vz) for set TIPMARKER and time  0.1844157E+02

         2  4.884294E-04  1.527396E-02 -9.320969E-04

 displacements (vx,vy,vz) for set TIPMARKER and time  0.1846419E+02

         2  4.891712E-04  5.075604E-03 -9.391442E-04

 displacements (vx,vy,vz) for set TIPMARKER and time  0.1849812E+02

         2  4.901956E-04 -1.029087E-02 -9.474789E-04

 displacements (vx,vy,vz) for set TIPMARKER and time  0.1851084E+02

         2  4.905663E-04 -1.606493E-02 -9.498565E-04

 displacements (vx,vy,vz) for set TIPMARKER and time  0.1852357E+02

         2  4.909213E-04 -2.183842E-02 -9.517832E-04

 displacements (vx,vy,vz) for set TIPMARKER and time  0.1854265E+02

         2  4.914255E-04 -3.048811E-02 -9.537729E-04

 displacements (vx,vy,vz) for set TIPMARKER and time  0.1854981E+02

         2  4.916083E-04 -3.372669E-02 -9.542302E-04

 displacements (vx,vy,vz) for set TIPMARKER and time  0.1855697E+02

         2  4.917638E-04 -3.696121E-02 -9.545232E-04

 displacements (vx,vy,vz) for set TIPMARKER and time  0.1856770E+02

         2  4.920412E-04 -4.180362E-02 -9.546803E-04

 displacements (vx,vy,vz) for set TIPMARKER and time  0.1858380E+02

         2  4.924227E-04 -4.904116E-02 -9.540752E-04

 displacements (vx,vy,vz) for set TIPMARKER and time  0.1860796E+02

         2  4.928682E-04 -5.982237E-02 -9.490977E-04

 displacements (vx,vy,vz) for set TIPMARKER and time  0.1864419E+02

         2  4.934365E-04 -7.577586E-02 -9.380639E-04

 displacements (vx,vy,vz) for set TIPMARKER and time  0.1869854E+02

         2  4.941001E-04 -9.905853E-02 -9.235219E-04

 displacements (vx,vy,vz) for set TIPMARKER and time  0.1871892E+02

         2  4.943085E-04 -1.075548E-01 -9.156972E-04

 displacements (vx,vy,vz) for set TIPMARKER and time  0.1873930E+02

         2  4.944282E-04 -1.159004E-01 -9.054359E-04

 displacements (vx,vy,vz) for set TIPMARKER and time  0.1876987E+02

         2  4.945743E-04 -1.281099E-01 -8.891975E-04

 displacements (vx,vy,vz) for set TIPMARKER and time  0.1881573E+02

         2  4.945703E-04 -1.456533E-01 -8.628720E-04

 displacements (vx,vy,vz) for set TIPMARKER and time  0.1888451E+02

         2  4.941922E-04 -1.699835E-01 -8.179162E-04

 displacements (vx,vy,vz) for set TIPMARKER and time  0.1898769E+02

         2  4.935170E-04 -2.011726E-01 -7.164325E-04

 displacements (vx,vy,vz) for set TIPMARKER and time  0.1914246E+02

         2  4.946353E-04 -2.332737E-01 -4.987824E-04

 displacements (vx,vy,vz) for set TIPMARKER and time  0.1918115E+02

         2  4.950555E-04 -2.382392E-01 -4.335115E-04

 displacements (vx,vy,vz) for set TIPMARKER and time  0.1921984E+02

         2  4.955864E-04 -2.418407E-01 -3.639178E-04

 displacements (vx,vy,vz) for set TIPMARKER and time  0.1927788E+02

         2  4.967431E-04 -2.446141E-01 -2.590254E-04

 displacements (vx,vy,vz) for set TIPMARKER and time  0.1936493E+02

         2  4.990316E-04 -2.428291E-01 -9.376992E-05

 displacements (vx,vy,vz) for set TIPMARKER and time  0.1939758E+02

         2  4.999805E-04 -2.403338E-01 -3.111536E-05

 displacements (vx,vy,vz) for set TIPMARKER and time  0.1943022E+02

         2  5.010347E-04 -2.368673E-01  2.744657E-05

 displacements (vx,vy,vz) for set TIPMARKER and time  0.1947919E+02
