
 displacements (vx,vy,vz) for set TIPMARKER and time  0.1000000E+00

         2 -1.029793E-07  1.553657E-12  4.733711E-09

 displacements (vx,vy,vz) for set TIPMARKER and time  0.2000000E+00

         2 -2.061591E-07  9.375525E-11  1.895893E-08

 displacements (vx,vy,vz) for set TIPMARKER and time  0.3500000E+00

         2 -3.606424E-07  4.055065E-10  5.705212E-08

 displacements (vx,vy,vz) for set TIPMARKER and time  0.5750000E+00

         2 -5.927937E-07  3.059628E-10  1.443955E-07

 displacements (vx,vy,vz) for set TIPMARKER and time  0.9125000E+00

         2 -9.406677E-07 -1.241807E-09  3.751510E-07

 displacements (vx,vy,vz) for set TIPMARKER and time  0.1418750E+01

         2 -1.463408E-06 -5.003613E-09  9.911497E-07

 displacements (vx,vy,vz) for set TIPMARKER and time  0.2178125E+01

         2 -2.247241E-06 -1.270975E-08  2.075912E-06

 displacements (vx,vy,vz) for set TIPMARKER and time  0.2462891E+01

         2 -2.541212E-06 -1.535221E-08  2.423721E-06

 displacements (vx,vy,vz) for set TIPMARKER and time  0.2747656E+01

         2 -2.834829E-06 -1.685239E-08  2.684873E-06

 displacements (vx,vy,vz) for set TIPMARKER and time  0.3032422E+01

         2  1.129157E-05 -1.323754E-03 -1.264031E-06

 displacements (vx,vy,vz) for set TIPMARKER and time  0.3317187E+01

         2  2.544649E-05 -5.110833E-03 -1.335910E-05

 displacements (vx,vy,vz) for set TIPMARKER and time  0.3388379E+01

         2  2.898037E-05 -6.429120E-03 -1.764722E-05

 displacements (vx,vy,vz) for set TIPMARKER and time  0.3459570E+01

         2  3.252947E-05 -7.909419E-03 -2.247936E-05

 displacements (vx,vy,vz) for set TIPMARKER and time  0.3530762E+01

         2  3.605544E-05 -9.572246E-03 -2.793620E-05

 displacements (vx,vy,vz) for set TIPMARKER and time  0.3601953E+01

         2  3.961210E-05 -1.147611E-02 -3.425153E-05

 displacements (vx,vy,vz) for set TIPMARKER and time  0.3673145E+01

         2  4.313747E-05 -1.370966E-02 -4.178442E-05

 displacements (vx,vy,vz) for set TIPMARKER and time  0.3744336E+01

         2  4.670551E-05 -1.632666E-02 -5.076672E-05

 displacements (vx,vy,vz) for set TIPMARKER and time  0.3815527E+01

         2  5.023625E-05 -1.926934E-02 -6.111043E-05

 displacements (vx,vy,vz) for set TIPMARKER and time  0.3886719E+01

         2  5.381059E-05 -2.241489E-02 -7.252034E-05

 displacements (vx,vy,vz) for set TIPMARKER and time  0.3957910E+01

         2  5.734202E-05 -2.569824E-02 -8.482019E-05

 displacements (vx,vy,vz) for set TIPMARKER and time  0.4029102E+01

         2  6.091682E-05 -2.910230E-02 -9.797573E-05

 displacements (vx,vy,vz) for set TIPMARKER and time  0.4100293E+01

         2  6.444846E-05 -3.259934E-02 -1.119177E-04

 displacements (vx,vy,vz) for set TIPMARKER and time  0.4171484E+01

         2  6.802158E-05 -3.622018E-02 -1.268111E-04

 displacements (vx,vy,vz) for set TIPMARKER and time  0.4242676E+01

         2  7.155740E-05 -4.005169E-02 -1.430759E-04

 displacements (vx,vy,vz) for set TIPMARKER and time  0.4313867E+01

         2  7.513558E-05 -4.409827E-02 -1.608992E-04

 displacements (vx,vy,vz) for set TIPMARKER and time  0.4385059E+01

         2  7.867979E-05 -4.826722E-02 -1.801595E-04

 displacements (vx,vy,vz) for set TIPMARKER and time  0.4491846E+01

         2  8.404259E-05 -5.451175E-02 -2.112039E-04

 displacements (vx,vy,vz) for set TIPMARKER and time  0.4598633E+01

         2  8.937448E-05 -6.052743E-02 -2.440487E-04

 displacements (vx,vy,vz) for set TIPMARKER and time  0.4705420E+01

         2  9.473221E-05 -6.617074E-02 -2.779532E-04

 displacements (vx,vy,vz) for set TIPMARKER and time  0.4812207E+01

         2  1.000637E-04 -7.149230E-02 -3.129817E-04

 displacements (vx,vy,vz) for set TIPMARKER and time  0.4838904E+01

         2  1.014119E-04 -7.279011E-02 -3.219858E-04

 displacements (vx,vy,vz) for set TIPMARKER and time  0.4865601E+01

         2  1.027360E-04 -7.408271E-02 -3.311311E-04

 displacements (vx,vy,vz) for set TIPMARKER and time  0.4905646E+01

         2  1.047549E-04 -7.599878E-02 -3.450933E-04

 displacements (vx,vy,vz) for set TIPMARKER and time  0.4965714E+01

         2  1.077538E-04 -7.877241E-02 -3.664491E-04

 displacements (vx,vy,vz) for set TIPMARKER and time  0.5055815E+01

         2  1.122824E-04 -8.260199E-02 -3.990011E-04

 displacements (vx,vy,vz) for set TIPMARKER and time  0.5145917E+01

         2  1.167931E-04 -8.591699E-02 -4.314413E-04

 displacements (vx,vy,vz) for set TIPMARKER and time  0.5236018E+01

         2  1.213173E-04 -8.861972E-02 -4.627616E-04

 displacements (vx,vy,vz) for set TIPMARKER and time  0.5326120E+01

         2  1.258239E-04 -9.075145E-02 -4.925266E-04

 displacements (vx,vy,vz) for set TIPMARKER and time  0.5416222E+01

         2  1.303411E-04 -9.247385E-02 -5.210017E-04

 displacements (vx,vy,vz) for set TIPMARKER and time  0.5551374E+01

         2  1.371068E-04 -9.446097E-02 -5.618106E-04

 displacements (vx,vy,vz) for set TIPMARKER and time  0.5686526E+01

         2  1.438836E-04 -9.559606E-02 -5.993922E-04

 displacements (vx,vy,vz) for set TIPMARKER and time  0.5821679E+01

         2  1.506480E-04 -9.574163E-02 -6.314543E-04

 displacements (vx,vy,vz) for set TIPMARKER and time  0.5956831E+01

         2  1.574046E-04 -9.509221E-02 -6.564482E-04

 displacements (vx,vy,vz) for set TIPMARKER and time  0.6091984E+01

         2  1.641447E-04 -9.417265E-02 -6.751661E-04

 displacements (vx,vy,vz) for set TIPMARKER and time  0.6125772E+01

         2  1.658307E-04 -9.396274E-02 -6.790940E-04

 displacements (vx,vy,vz) for set TIPMARKER and time  0.6159560E+01

         2  1.675148E-04 -9.377843E-02 -6.828289E-04

 displacements (vx,vy,vz) for set TIPMARKER and time  0.6210242E+01

         2  1.700438E-04 -9.353826E-02 -6.881781E-04

 displacements (vx,vy,vz) for set TIPMARKER and time  0.6286265E+01

         2  1.738363E-04 -9.321783E-02 -6.952584E-04

 displacements (vx,vy,vz) for set TIPMARKER and time  0.6400300E+01

         2  1.795143E-04 -9.279777E-02 -7.023913E-04

 displacements (vx,vy,vz) for set TIPMARKER and time  0.6514335E+01

         2  1.851827E-04 -9.256382E-02 -7.056796E-04

 displacements (vx,vy,vz) for set TIPMARKER and time  0.6628370E+01

         2  1.908412E-04 -9.279881E-02 -7.063249E-04

 displacements (vx,vy,vz) for set TIPMARKER and time  0.6799422E+01

         2  1.993246E-04 -9.461381E-02 -7.072181E-04

 displacements (vx,vy,vz) for set TIPMARKER and time  0.6970475E+01

         2  2.078198E-04 -9.816058E-02 -7.125500E-04

 displacements (vx,vy,vz) for set TIPMARKER and time  0.7141527E+01

         2  2.163099E-04 -1.030144E-01 -7.219438E-04

 displacements (vx,vy,vz) for set TIPMARKER and time  0.7312579E+01

         2  2.247908E-04 -1.091313E-01 -7.376707E-04

 displacements (vx,vy,vz) for set TIPMARKER and time  0.7483632E+01

         2  2.332890E-04 -1.166028E-01 -7.663567E-04

 displacements (vx,vy,vz) for set TIPMARKER and time  0.7654684E+01

         2  2.418185E-04 -1.248777E-01 -8.068887E-04

 displacements (vx,vy,vz) for set TIPMARKER and time  0.7697447E+01

         2  2.439614E-04 -1.269730E-01 -8.175710E-04

 displacements (vx,vy,vz) for set TIPMARKER and time  0.7740210E+01

         2  2.460838E-04 -1.290323E-01 -8.267550E-04

 displacements (vx,vy,vz) for set TIPMARKER and time  0.7782973E+01

         2  2.481943E-04 -1.310423E-01 -8.348213E-04

 displacements (vx,vy,vz) for set TIPMARKER and time  0.7825736E+01

         2  2.503105E-04 -1.330014E-01 -8.435357E-04

 displacements (vx,vy,vz) for set TIPMARKER and time  0.7889881E+01

         2  2.534890E-04 -1.358634E-01 -8.577468E-04

 displacements (vx,vy,vz) for set TIPMARKER and time  0.7954025E+01

         2  2.566562E-04 -1.386543E-01 -8.728407E-04

 displacements (vx,vy,vz) for set TIPMARKER and time  0.8018170E+01

         2  2.598342E-04 -1.413744E-01 -8.915168E-04

 displacements (vx,vy,vz) for set TIPMARKER and time  0.8114387E+01

         2  2.646606E-04 -1.452363E-01 -9.309375E-04

 displacements (vx,vy,vz) for set TIPMARKER and time  0.8258712E+01

         2  2.719388E-04 -1.501582E-01 -9.988899E-04

 displacements (vx,vy,vz) for set TIPMARKER and time  0.8475200E+01

         2  2.827582E-04 -1.548742E-01 -1.086270E-03

 displacements (vx,vy,vz) for set TIPMARKER and time  0.8691688E+01

         2  2.935870E-04 -1.566217E-01 -1.165723E-03

 displacements (vx,vy,vz) for set TIPMARKER and time  0.8908176E+01

         2  3.044845E-04 -1.561252E-01 -1.244248E-03

 displacements (vx,vy,vz) for set TIPMARKER and time  0.8962298E+01

         2  3.072150E-04 -1.556848E-01 -1.262142E-03

 displacements (vx,vy,vz) for set TIPMARKER and time  0.9016421E+01

         2  3.099452E-04 -1.551083E-01 -1.277875E-03

 displacements (vx,vy,vz) for set TIPMARKER and time  0.9097604E+01

         2  3.140100E-04 -1.540238E-01 -1.293698E-03

 displacements (vx,vy,vz) for set TIPMARKER and time  0.9219378E+01

         2  3.200529E-04 -1.521438E-01 -1.303266E-03

 displacements (vx,vy,vz) for set TIPMARKER and time  0.9402040E+01

         2  3.291458E-04 -1.495917E-01 -1.310837E-03

 displacements (vx,vy,vz) for set TIPMARKER and time  0.9584702E+01

         2  3.382683E-04 -1.480301E-01 -1.313585E-03

 displacements (vx,vy,vz) for set TIPMARKER and time  0.9767363E+01

         2  3.473161E-04 -1.477528E-01 -1.297697E-03

 displacements (vx,vy,vz) for set TIPMARKER and time  0.9813029E+01

         2  3.495634E-04 -1.479020E-01 -1.290384E-03

 displacements (vx,vy,vz) for set TIPMARKER and time  0.9858694E+01

         2  3.518061E-04 -1.481635E-01 -1.282216E-03

 displacements (vx,vy,vz) for set TIPMARKER and time  0.9904360E+01

         2  3.540427E-04 -1.485597E-01 -1.273639E-03

 displacements (vx,vy,vz) for set TIPMARKER and time  0.9972858E+01

         2  3.574054E-04 -1.494396E-01 -1.262909E-03

 displacements (vx,vy,vz) for set TIPMARKER and time  0.1007561E+02

         2  3.624897E-04 -1.514175E-01 -1.255148E-03

 displacements (vx,vy,vz) for set TIPMARKER and time  0.1022973E+02

         2  3.701283E-04 -1.556402E-01 -1.252533E-03

 displacements (vx,vy,vz) for set TIPMARKER and time  0.1028752E+02

         2  3.729778E-04 -1.575351E-01 -1.251630E-03

 displacements (vx,vy,vz) for set TIPMARKER and time  0.1034532E+02

         2  3.758193E-04 -1.595398E-01 -1.250425E-03

 displacements (vx,vy,vz) for set TIPMARKER and time  0.1043201E+02

         2  3.800757E-04 -1.627314E-01 -1.249904E-03

 displacements (vx,vy,vz) for set TIPMARKER and time  0.1056205E+02

         2  3.864679E-04 -1.679503E-01 -1.258514E-03

 displacements (vx,vy,vz) for set TIPMARKER and time  0.1061081E+02

         2  3.888773E-04 -1.700371E-01 -1.266452E-03

 displacements (vx,vy,vz) for set TIPMARKER and time  0.1065958E+02

         2  3.913017E-04 -1.721738E-01 -1.277864E-03

 displacements (vx,vy,vz) for set TIPMARKER and time  0.1070834E+02

         2  3.937342E-04 -1.743347E-01 -1.291776E-03

 displacements (vx,vy,vz) for set TIPMARKER and time  0.1078149E+02

         2  3.973767E-04 -1.775450E-01 -1.314004E-03

 displacements (vx,vy,vz) for set TIPMARKER and time  0.1089121E+02

         2  4.028171E-04 -1.820745E-01 -1.346859E-03

 displacements (vx,vy,vz) for set TIPMARKER and time  0.1105579E+02

         2  4.109598E-04 -1.878846E-01 -1.398062E-03

 displacements (vx,vy,vz) for set TIPMARKER and time  0.1111751E+02

         2  4.140156E-04 -1.897333E-01 -1.419478E-03

 displacements (vx,vy,vz) for set TIPMARKER and time  0.1117923E+02

         2  4.170881E-04 -1.914027E-01 -1.444585E-03

 displacements (vx,vy,vz) for set TIPMARKER and time  0.1127181E+02

         2  4.217508E-04 -1.935382E-01 -1.489996E-03

 displacements (vx,vy,vz) for set TIPMARKER and time  0.1141067E+02

         2  4.287504E-04 -1.957113E-01 -1.554774E-03

 displacements (vx,vy,vz) for set TIPMARKER and time  0.1161897E+02

         2  4.391283E-04 -1.963617E-01 -1.614669E-03

 displacements (vx,vy,vz) for set TIPMARKER and time  0.1169708E+02

         2  4.430053E-04 -1.958262E-01 -1.627998E-03

 displacements (vx,vy,vz) for set TIPMARKER and time  0.1177519E+02

         2  4.469067E-04 -1.949843E-01 -1.642031E-03

 displacements (vx,vy,vz) for set TIPMARKER and time  0.1189236E+02

         2  4.528007E-04 -1.933559E-01 -1.664511E-03

 displacements (vx,vy,vz) for set TIPMARKER and time  0.1206811E+02

         2  4.616220E-04 -1.903584E-01 -1.681314E-03

 displacements (vx,vy,vz) for set TIPMARKER and time  0.1224386E+02

         2  4.703297E-04 -1.871069E-01 -1.664155E-03

 displacements (vx,vy,vz) for set TIPMARKER and time  0.1241962E+02

         2  4.790053E-04 -1.844297E-01 -1.634743E-03

 displacements (vx,vy,vz) for set TIPMARKER and time  0.1248552E+02

         2  4.822850E-04 -1.837554E-01 -1.627773E-03

 displacements (vx,vy,vz) for set TIPMARKER and time  0.1255143E+02

         2  4.855783E-04 -1.833507E-01 -1.623516E-03

 displacements (vx,vy,vz) for set TIPMARKER and time  0.1265029E+02

         2  4.904950E-04 -1.832687E-01 -1.615454E-03

 displacements (vx,vy,vz) for set TIPMARKER and time  0.1274915E+02

         2  4.953698E-04 -1.837799E-01 -1.602261E-03

 displacements (vx,vy,vz) for set TIPMARKER and time  0.1284801E+02

         2  5.002102E-04 -1.848702E-01 -1.586369E-03

 displacements (vx,vy,vz) for set TIPMARKER and time  0.1294687E+02

         2  5.050553E-04 -1.865804E-01 -1.576112E-03

 displacements (vx,vy,vz) for set TIPMARKER and time  0.1309516E+02

         2  5.123915E-04 -1.903393E-01 -1.582583E-03

 displacements (vx,vy,vz) for set TIPMARKER and time  0.1331760E+02

         2  5.234062E-04 -1.980203E-01 -1.618105E-03

 displacements (vx,vy,vz) for set TIPMARKER and time  0.1340101E+02

         2  5.275070E-04 -2.013032E-01 -1.633033E-03

 displacements (vx,vy,vz) for set TIPMARKER and time  0.1348442E+02

         2  5.315983E-04 -2.046038E-01 -1.648756E-03

 displacements (vx,vy,vz) for set TIPMARKER and time  0.1360954E+02

         2  5.377658E-04 -2.094431E-01 -1.681545E-03

 displacements (vx,vy,vz) for set TIPMARKER and time  0.1379722E+02

         2  5.470967E-04 -2.160566E-01 -1.749215E-03

 displacements (vx,vy,vz) for set TIPMARKER and time  0.1407874E+02

         2  5.610832E-04 -2.227160E-01 -1.836963E-03

 displacements (vx,vy,vz) for set TIPMARKER and time  0.1414912E+02

         2  5.645617E-04 -2.235646E-01 -1.850632E-03

 displacements (vx,vy,vz) for set TIPMARKER and time  0.1421950E+02

         2  5.680422E-04 -2.240271E-01 -1.861876E-03

 displacements (vx,vy,vz) for set TIPMARKER and time  0.1432507E+02

         2  5.733001E-04 -2.240483E-01 -1.879350E-03

 displacements (vx,vy,vz) for set TIPMARKER and time  0.1448343E+02

         2  5.812290E-04 -2.228652E-01 -1.902179E-03

 displacements (vx,vy,vz) for set TIPMARKER and time  0.1454281E+02

         2  5.842002E-04 -2.220987E-01 -1.907306E-03

 displacements (vx,vy,vz) for set TIPMARKER and time  0.1460219E+02

         2  5.871669E-04 -2.211630E-01 -1.909006E-03

 displacements (vx,vy,vz) for set TIPMARKER and time  0.1466158E+02

         2  5.901197E-04 -2.200686E-01 -1.906462E-03

 displacements (vx,vy,vz) for set TIPMARKER and time  0.1472096E+02

         2  5.930614E-04 -2.188460E-01 -1.900474E-03

 displacements (vx,vy,vz) for set TIPMARKER and time  0.1474323E+02

         2  5.941644E-04 -2.183608E-01 -1.897734E-03

 displacements (vx,vy,vz) for set TIPMARKER and time  0.1476550E+02

         2  5.952679E-04 -2.178643E-01 -1.894893E-03

 displacements (vx,vy,vz) for set TIPMARKER and time  0.1479890E+02

         2  5.969233E-04 -2.171029E-01 -1.890587E-03

 displacements (vx,vy,vz) for set TIPMARKER and time  0.1484901E+02

         2  5.994142E-04 -2.159455E-01 -1.884976E-03

 displacements (vx,vy,vz) for set TIPMARKER and time  0.1492416E+02

         2  6.031700E-04 -2.142663E-01 -1.879155E-03

 displacements (vx,vy,vz) for set TIPMARKER and time  0.1503690E+02

         2  6.088058E-04 -2.120610E-01 -1.871922E-03

 displacements (vx,vy,vz) for set TIPMARKER and time  0.1520600E+02

         2  6.172085E-04 -2.096781E-01 -1.855907E-03

 displacements (vx,vy,vz) for set TIPMARKER and time  0.1545965E+02

         2  6.297387E-04 -2.089161E-01 -1.837172E-03

 displacements (vx,vy,vz) for set TIPMARKER and time  0.1584014E+02

         2  6.485742E-04 -2.152864E-01 -1.876870E-03

 displacements (vx,vy,vz) for set TIPMARKER and time  0.1622062E+02

         2  6.673521E-04 -2.280412E-01 -1.963377E-03

 displacements (vx,vy,vz) for set TIPMARKER and time  0.1660110E+02

         2  6.860730E-04 -2.400695E-01 -2.042612E-03

 displacements (vx,vy,vz) for set TIPMARKER and time  0.1698158E+02

         2  7.049254E-04 -2.452690E-01 -2.087716E-03

 displacements (vx,vy,vz) for set TIPMARKER and time  0.1736206E+02

         2  7.237888E-04 -2.419319E-01 -2.065127E-03

 displacements (vx,vy,vz) for set TIPMARKER and time  0.1745718E+02

         2  7.285109E-04 -2.398977E-01 -2.051440E-03

 displacements (vx,vy,vz) for set TIPMARKER and time  0.1755230E+02

         2  7.332558E-04 -2.376699E-01 -2.041418E-03

 displacements (vx,vy,vz) for set TIPMARKER and time  0.1769498E+02

         2  7.403901E-04 -2.344129E-01 -2.032766E-03

 displacements (vx,vy,vz) for set TIPMARKER and time  0.1790900E+02

         2  7.510525E-04 -2.305652E-01 -2.026719E-03

 displacements (vx,vy,vz) for set TIPMARKER and time  0.1823003E+02

         2  7.669984E-04 -2.290940E-01 -2.053127E-03

 displacements (vx,vy,vz) for set TIPMARKER and time  0.1871158E+02

         2  7.908627E-04 -2.380338E-01 -2.167067E-03

 displacements (vx,vy,vz) for set TIPMARKER and time  0.1919313E+02

         2  8.145296E-04 -2.532296E-01 -2.255016E-03

 displacements (vx,vy,vz) for set TIPMARKER and time  0.1931351E+02

         2  8.204245E-04 -2.565830E-01 -2.261266E-03

 displacements (vx,vy,vz) for set TIPMARKER and time  0.1934361E+02

         2  8.219022E-04 -2.573024E-01 -2.262151E-03

 displacements (vx,vy,vz) for set TIPMARKER and time  0.1937371E+02

         2  8.233826E-04 -2.579718E-01 -2.262838E-03

 displacements (vx,vy,vz) for set TIPMARKER and time  0.1940380E+02

         2  8.248652E-04 -2.585917E-01 -2.263269E-03

 displacements (vx,vy,vz) for set TIPMARKER and time  0.1943390E+02

         2  8.263487E-04 -2.591616E-01 -2.263265E-03

 displacements (vx,vy,vz) for set TIPMARKER and time  0.1947904E+02

         2  8.285730E-04 -2.599134E-01 -2.262033E-03

 displacements (vx,vy,vz) for set TIPMARKER and time  0.1954676E+02

         2  8.319054E-04 -2.607841E-01 -2.256882E-03

 displacements (vx,vy,vz) for set TIPMARKER and time  0.1961448E+02

         2  8.352319E-04 -2.613320E-01 -2.247648E-03

 displacements (vx,vy,vz) for set TIPMARKER and time  0.1968220E+02

         2  8.385564E-04 -2.615421E-01 -2.235263E-03

 displacements (vx,vy,vz) for set TIPMARKER and time  0.1974991E+02

         2  8.418876E-04 -2.613897E-01 -2.221556E-03

 displacements (vx,vy,vz) for set TIPMARKER and time  0.1985149E+02

         2  8.469096E-04 -2.605132E-01 -2.202029E-03

 displacements (vx,vy,vz) for set TIPMARKER and time  0.1995307E+02

         2  8.519599E-04 -2.590202E-01 -2.185385E-03

 displacements (vx,vy,vz) for set TIPMARKER and time  0.2005464E+02

         2  8.570191E-04 -2.570933E-01 -2.170623E-03

 displacements (vx,vy,vz) for set TIPMARKER and time  0.2015622E+02

         2  8.620703E-04 -2.548652E-01 -2.156563E-03

 displacements (vx,vy,vz) for set TIPMARKER and time  0.2018161E+02

         2  8.633317E-04 -2.542747E-01 -2.153269E-03

 displacements (vx,vy,vz) for set TIPMARKER and time  0.2020701E+02

         2  8.645933E-04 -2.536774E-01 -2.150260E-03

 displacements (vx,vy,vz) for set TIPMARKER and time  0.2024510E+02

         2  8.664871E-04 -2.527727E-01 -2.146505E-03

 displacements (vx,vy,vz) for set TIPMARKER and time  0.2030223E+02

         2  8.693326E-04 -2.514053E-01 -2.143196E-03

 displacements (vx,vy,vz) for set TIPMARKER and time  0.2038794E+02

         2  8.736179E-04 -2.494008E-01 -2.144879E-03

 displacements (vx,vy,vz) for set TIPMARKER and time  0.2051650E+02

         2  8.800703E-04 -2.468184E-01 -2.161477E-03

 displacements (vx,vy,vz) for set TIPMARKER and time  0.2064505E+02

         2  8.865117E-04 -2.450799E-01 -2.188829E-03

 displacements (vx,vy,vz) for set TIPMARKER and time  0.2077361E+02

         2  8.929181E-04 -2.443790E-01 -2.221628E-03

 displacements (vx,vy,vz) for set TIPMARKER and time  0.2096645E+02

         2  9.025170E-04 -2.454007E-01 -2.285029E-03

 displacements (vx,vy,vz) for set TIPMARKER and time  0.2115928E+02

         2  9.121082E-04 -2.488769E-01 -2.358597E-03

 displacements (vx,vy,vz) for set TIPMARKER and time  0.2135212E+02

         2  9.216199E-04 -2.543872E-01 -2.416592E-03

 displacements (vx,vy,vz) for set TIPMARKER and time  0.2142443E+02

         2  9.251577E-04 -2.568224E-01 -2.430097E-03

 displacements (vx,vy,vz) for set TIPMARKER and time  0.2149675E+02

         2  9.286870E-04 -2.593107E-01 -2.439076E-03

 displacements (vx,vy,vz) for set TIPMARKER and time  0.2160522E+02

         2  9.339886E-04 -2.629584E-01 -2.446782E-03

 displacements (vx,vy,vz) for set TIPMARKER and time  0.2176792E+02

         2  9.419532E-04 -2.678920E-01 -2.442837E-03

 displacements (vx,vy,vz) for set TIPMARKER and time  0.2201198E+02

         2  9.538563E-04 -2.729671E-01 -2.390990E-03

 displacements (vx,vy,vz) for set TIPMARKER and time  0.2225604E+02

         2  9.657810E-04 -2.741075E-01 -2.308211E-03

 displacements (vx,vy,vz) for set TIPMARKER and time  0.2231705E+02

         2  9.687886E-04 -2.736994E-01 -2.288691E-03

 displacements (vx,vy,vz) for set TIPMARKER and time  0.2237807E+02

         2  9.718120E-04 -2.730322E-01 -2.272392E-03

 displacements (vx,vy,vz) for set TIPMARKER and time  0.2246959E+02

         2  9.763642E-04 -2.716327E-01 -2.252938E-03

 displacements (vx,vy,vz) for set TIPMARKER and time  0.2260687E+02

         2  9.831959E-04 -2.688868E-01 -2.230985E-03

 displacements (vx,vy,vz) for set TIPMARKER and time  0.2281280E+02

         2  9.934486E-04 -2.640534E-01 -2.224147E-03

 displacements (vx,vy,vz) for set TIPMARKER and time  0.2312168E+02

         2  1.008968E-03 -2.580784E-01 -2.305972E-03

 displacements (vx,vy,vz) for set TIPMARKER and time  0.2358501E+02

         2  1.032151E-03 -2.584951E-01 -2.507057E-03

 displacements (vx,vy,vz) for set TIPMARKER and time  0.2362845E+02

         2  1.034293E-03 -2.592386E-01 -2.523834E-03

 displacements (vx,vy,vz) for set TIPMARKER and time  0.2367189E+02

         2  1.036433E-03 -2.600889E-01 -2.539293E-03

 displacements (vx,vy,vz) for set TIPMARKER and time  0.2373704E+02

         2  1.039645E-03 -2.615617E-01 -2.560998E-03

 displacements (vx,vy,vz) for set TIPMARKER and time  0.2383478E+02

         2  1.044465E-03 -2.641506E-01 -2.590121E-03

 displacements (vx,vy,vz) for set TIPMARKER and time  0.2398138E+02

         2  1.051679E-03 -2.686537E-01 -2.618102E-03

 displacements (vx,vy,vz) for set TIPMARKER and time  0.2420128E+02

         2  1.062379E-03 -2.757031E-01 -2.602296E-03

 displacements (vx,vy,vz) for set TIPMARKER and time  0.2442118E+02

         2  1.073017E-03 -2.813753E-01 -2.529096E-03

 displacements (vx,vy,vz) for set TIPMARKER and time  0.2447615E+02

         2  1.075686E-03 -2.823908E-01 -2.506136E-03

 displacements (vx,vy,vz) for set TIPMARKER and time  0.2453113E+02

         2  1.078366E-03 -2.832108E-01 -2.483393E-03

 displacements (vx,vy,vz) for set TIPMARKER and time  0.2461359E+02

         2  1.082402E-03 -2.840812E-01 -2.449242E-03

 displacements (vx,vy,vz) for set TIPMARKER and time  0.2473728E+02

         2  1.088449E-03 -2.844958E-01 -2.394728E-03

 displacements (vx,vy,vz) for set TIPMARKER and time  0.2486098E+02

         2  1.094499E-03 -2.838040E-01 -2.341766E-03

 displacements (vx,vy,vz) for set TIPMARKER and time  0.2498467E+02

         2  1.100599E-03 -2.820833E-01 -2.304075E-03

 displacements (vx,vy,vz) for set TIPMARKER and time  0.2517021E+02

         2  1.109866E-03 -2.781820E-01 -2.292329E-03

 displacements (vx,vy,vz) for set TIPMARKER and time  0.2544852E+02

         2  1.123855E-03 -2.718041E-01 -2.356794E-03

 displacements (vx,vy,vz) for set TIPMARKER and time  0.2555289E+02

         2  1.129094E-03 -2.697073E-01 -2.400612E-03

 displacements (vx,vy,vz) for set TIPMARKER and time  0.2557898E+02

         2  1.130404E-03 -2.692352E-01 -2.413132E-03

 displacements (vx,vy,vz) for set TIPMARKER and time  0.2560507E+02

         2  1.131731E-03 -2.687920E-01 -2.427681E-03

 displacements (vx,vy,vz) for set TIPMARKER and time  0.2564421E+02

         2  1.133721E-03 -2.681956E-01 -2.452023E-03

 displacements (vx,vy,vz) for set TIPMARKER and time  0.2570292E+02

         2  1.136674E-03 -2.674703E-01 -2.488068E-03

 displacements (vx,vy,vz) for set TIPMARKER and time  0.2579098E+02

         2  1.141116E-03 -2.668237E-01 -2.544238E-03

 displacements (vx,vy,vz) for set TIPMARKER and time  0.2592307E+02

         2  1.147757E-03 -2.669660E-01 -2.625507E-03

 displacements (vx,vy,vz) for set TIPMARKER and time  0.2597260E+02

         2  1.150218E-03 -2.673711E-01 -2.651410E-03

 displacements (vx,vy,vz) for set TIPMARKER and time  0.2602213E+02

         2  1.152669E-03 -2.679528E-01 -2.674511E-03

 displacements (vx,vy,vz) for set TIPMARKER and time  0.2607167E+02

         2  1.155112E-03 -2.686834E-01 -2.695419E-03

 displacements (vx,vy,vz) for set TIPMARKER and time  0.2614597E+02

         2  1.158798E-03 -2.700280E-01 -2.726308E-03

 displacements (vx,vy,vz) for set TIPMARKER and time  0.2617383E+02

         2  1.160193E-03 -2.706104E-01 -2.737897E-03

 displacements (vx,vy,vz) for set TIPMARKER and time  0.2620169E+02

         2  1.161580E-03 -2.712362E-01 -2.748042E-03

 displacements (vx,vy,vz) for set TIPMARKER and time  0.2624349E+02

         2  1.163634E-03 -2.722484E-01 -2.758973E-03

 displacements (vx,vy,vz) for set TIPMARKER and time  0.2625916E+02

         2  1.164398E-03 -2.726495E-01 -2.761907E-03

 displacements (vx,vy,vz) for set TIPMARKER and time  0.2627483E+02

         2  1.165164E-03 -2.730620E-01 -2.764712E-03

 displacements (vx,vy,vz) for set TIPMARKER and time  0.2629834E+02

         2  1.166323E-03 -2.737025E-01 -2.769094E-03

 displacements (vx,vy,vz) for set TIPMARKER and time  0.2633360E+02

         2  1.168067E-03 -2.747098E-01 -2.774592E-03

 displacements (vx,vy,vz) for set TIPMARKER and time  0.2638650E+02

         2  1.170652E-03 -2.763122E-01 -2.776471E-03

 displacements (vx,vy,vz) for set TIPMARKER and time  0.2646584E+02

         2  1.174485E-03 -2.788517E-01 -2.765852E-03

 displacements (vx,vy,vz) for set TIPMARKER and time  0.2658486E+02

         2  1.180216E-03 -2.826643E-01 -2.731518E-03

 displacements (vx,vy,vz) for set TIPMARKER and time  0.2676338E+02

         2  1.188860E-03 -2.876797E-01 -2.657976E-03

 displacements (vx,vy,vz) for set TIPMARKER and time  0.2703116E+02

         2  1.201829E-03 -2.923311E-01 -2.510206E-03

 displacements (vx,vy,vz) for set TIPMARKER and time  0.2743283E+02

         2  1.221497E-03 -2.912080E-01 -2.349931E-03

 displacements (vx,vy,vz) for set TIPMARKER and time  0.2803535E+02

         2  1.251706E-03 -2.799697E-01 -2.487255E-03

 displacements (vx,vy,vz) for set TIPMARKER and time  0.2863786E+02

         2  1.281947E-03 -2.764482E-01 -2.821455E-03

 displacements (vx,vy,vz) for set TIPMARKER and time  0.2924037E+02

         2  1.311481E-03 -2.883306E-01 -2.855954E-03

 displacements (vx,vy,vz) for set TIPMARKER and time  0.2984288E+02

         2  1.340638E-03 -2.999817E-01 -2.565540E-03

 displacements (vx,vy,vz) for set TIPMARKER and time  0.3074665E+02

         2  1.385332E-03 -2.937080E-01 -2.494222E-03

 displacements (vx,vy,vz) for set TIPMARKER and time  0.3097259E+02

         2  1.396759E-03 -2.887256E-01 -2.624607E-03

 displacements (vx,vy,vz) for set TIPMARKER and time  0.3119853E+02

         2  1.408193E-03 -2.852362E-01 -2.786324E-03

 displacements (vx,vy,vz) for set TIPMARKER and time  0.3128326E+02

         2  1.412447E-03 -2.845972E-01 -2.843456E-03

 displacements (vx,vy,vz) for set TIPMARKER and time  0.3136798E+02

         2  1.416703E-03 -2.844030E-01 -2.897953E-03

 displacements (vx,vy,vz) for set TIPMARKER and time  0.3145271E+02

         2  1.420963E-03 -2.846819E-01 -2.948142E-03

 displacements (vx,vy,vz) for set TIPMARKER and time  0.3153744E+02

         2  1.425170E-03 -2.854534E-01 -2.983310E-03

 displacements (vx,vy,vz) for set TIPMARKER and time  0.3166453E+02

         2  1.431394E-03 -2.874907E-01 -3.003302E-03

 displacements (vx,vy,vz) for set TIPMARKER and time  0.3185517E+02

         2  1.440660E-03 -2.919659E-01 -2.978903E-03

 displacements (vx,vy,vz) for set TIPMARKER and time  0.3214113E+02

         2  1.454470E-03 -2.995549E-01 -2.845195E-03

 displacements (vx,vy,vz) for set TIPMARKER and time  0.3224836E+02

         2  1.459613E-03 -3.021982E-01 -2.768289E-03

 displacements (vx,vy,vz) for set TIPMARKER and time  0.3235560E+02

         2  1.464738E-03 -3.044163E-01 -2.683938E-03

 displacements (vx,vy,vz) for set TIPMARKER and time  0.3238241E+02

         2  1.466019E-03 -3.048842E-01 -2.662760E-03

 displacements (vx,vy,vz) for set TIPMARKER and time  0.3240921E+02

         2  1.467302E-03 -3.053092E-01 -2.642270E-03

 displacements (vx,vy,vz) for set TIPMARKER and time  0.3244943E+02

         2  1.469236E-03 -3.058595E-01 -2.613612E-03

 displacements (vx,vy,vz) for set TIPMARKER and time  0.3250975E+02

         2  1.472163E-03 -3.064758E-01 -2.576507E-03

 displacements (vx,vy,vz) for set TIPMARKER and time  0.3260022E+02

         2  1.476591E-03 -3.069062E-01 -2.532789E-03

 displacements (vx,vy,vz) for set TIPMARKER and time  0.3273594E+02

         2  1.483262E-03 -3.064919E-01 -2.489497E-03

 displacements (vx,vy,vz) for set TIPMARKER and time  0.3293952E+02
