
 displacements (vx,vy,vz) for set TIPMARKER and time  0.1000000E+00

         2 -1.926973E-07 -1.500101E-05 -1.600044E-08

 displacements (vx,vy,vz) for set TIPMARKER and time  0.2000000E+00

         2  5.696135E-08 -7.369722E-05 -1.109597E-07

 displacements (vx,vy,vz) for set TIPMARKER and time  0.3500000E+00

         2  1.408722E-06 -3.140534E-04 -6.344080E-07

 displacements (vx,vy,vz) for set TIPMARKER and time  0.5000000E+00

         2  3.695893E-06 -8.008785E-04 -1.838514E-06

 displacements (vx,vy,vz) for set TIPMARKER and time  0.6500000E+00

         2  6.863871E-06 -1.597939E-03 -3.912452E-06

 displacements (vx,vy,vz) for set TIPMARKER and time  0.8000000E+00

         2  1.083786E-05 -2.812675E-03 -7.118156E-06

 displacements (vx,vy,vz) for set TIPMARKER and time  0.9500000E+00

         2  1.553540E-05 -4.612113E-03 -1.194825E-05

 displacements (vx,vy,vz) for set TIPMARKER and time  0.1100000E+01

         2  2.085657E-05 -7.140307E-03 -1.900352E-05

 displacements (vx,vy,vz) for set TIPMARKER and time  0.1250000E+01

         2  2.669491E-05 -1.045648E-02 -2.871941E-05

 displacements (vx,vy,vz) for set TIPMARKER and time  0.1400000E+01

         2  3.292859E-05 -1.457681E-02 -4.138866E-05

 displacements (vx,vy,vz) for set TIPMARKER and time  0.1550000E+01

         2  3.943504E-05 -1.952120E-02 -5.740901E-05

 displacements (vx,vy,vz) for set TIPMARKER and time  0.1700000E+01

         2  4.608248E-05 -2.528251E-02 -7.730646E-05

 displacements (vx,vy,vz) for set TIPMARKER and time  0.1850000E+01

         2  5.274143E-05 -3.175637E-02 -1.014846E-04

 displacements (vx,vy,vz) for set TIPMARKER and time  0.2000000E+01

         2  5.927594E-05 -3.873891E-02 -1.300287E-04

 displacements (vx,vy,vz) for set TIPMARKER and time  0.2150000E+01

         2  6.555678E-05 -4.600453E-02 -1.628135E-04

 displacements (vx,vy,vz) for set TIPMARKER and time  0.2300000E+01

         2  7.145559E-05 -5.333345E-02 -1.996759E-04

 displacements (vx,vy,vz) for set TIPMARKER and time  0.2450000E+01

         2  7.685561E-05 -6.046421E-02 -2.402466E-04

 displacements (vx,vy,vz) for set TIPMARKER and time  0.2600000E+01

         2  8.164362E-05 -6.707458E-02 -2.836217E-04

 displacements (vx,vy,vz) for set TIPMARKER and time  0.2750000E+01

         2  8.572006E-05 -7.284072E-02 -3.283469E-04

 displacements (vx,vy,vz) for set TIPMARKER and time  0.2900000E+01

         2  8.899419E-05 -7.751291E-02 -3.727028E-04

 displacements (vx,vy,vz) for set TIPMARKER and time  0.3050000E+01

         2  9.139374E-05 -8.090758E-02 -4.149182E-04

 displacements (vx,vy,vz) for set TIPMARKER and time  0.3275000E+01

         2  9.286375E-05 -8.322746E-02 -4.693030E-04

 displacements (vx,vy,vz) for set TIPMARKER and time  0.3612500E+01

         2  9.159562E-05 -8.014014E-02 -5.161311E-04

 displacements (vx,vy,vz) for set TIPMARKER and time  0.4118750E+01

         2  1.004838E-04 -6.335797E-02 -4.862116E-04

 displacements (vx,vy,vz) for set TIPMARKER and time  0.4625000E+01

         2  1.177255E-04 -3.858687E-02 -3.455517E-04

 displacements (vx,vy,vz) for set TIPMARKER and time  0.5131250E+01

         2  1.393304E-04 -1.456390E-02 -1.566663E-04

 displacements (vx,vy,vz) for set TIPMARKER and time  0.5637500E+01

         2  1.605543E-04  2.341745E-03 -1.986244E-05

 displacements (vx,vy,vz) for set TIPMARKER and time  0.6143750E+01

         2  1.766814E-04  1.061718E-02 -1.065612E-05

 displacements (vx,vy,vz) for set TIPMARKER and time  0.6650000E+01

         2  1.838959E-04  1.244158E-02 -1.269472E-04

 displacements (vx,vy,vz) for set TIPMARKER and time  0.7156250E+01

         2  1.817474E-04  1.056162E-02 -2.801667E-04

 displacements (vx,vy,vz) for set TIPMARKER and time  0.7662500E+01

         2  1.904397E-04  5.837483E-03 -3.544907E-04

 displacements (vx,vy,vz) for set TIPMARKER and time  0.8168750E+01

         2  2.075565E-04 -3.323821E-03 -2.965099E-04

 displacements (vx,vy,vz) for set TIPMARKER and time  0.8675000E+01

         2  2.291550E-04 -1.869236E-02 -1.587176E-04

 displacements (vx,vy,vz) for set TIPMARKER and time  0.9181250E+01

         2  2.505191E-04 -3.925049E-02 -6.957614E-05

 displacements (vx,vy,vz) for set TIPMARKER and time  0.9687500E+01

         2  2.669541E-04 -5.983315E-02 -1.361831E-04

 displacements (vx,vy,vz) for set TIPMARKER and time  0.1019375E+02

         2  2.745932E-04 -7.270181E-02 -3.498010E-04

 displacements (vx,vy,vz) for set TIPMARKER and time  0.1070000E+02

         2  2.721873E-04 -7.188338E-02 -5.738947E-04

 displacements (vx,vy,vz) for set TIPMARKER and time  0.1120625E+02

         2  2.805557E-04 -5.689265E-02 -6.385330E-04

 displacements (vx,vy,vz) for set TIPMARKER and time  0.1171250E+02

         2  2.972672E-04 -3.311730E-02 -4.695136E-04

 displacements (vx,vy,vz) for set TIPMARKER and time  0.1221875E+02

         2  3.184508E-04 -8.746506E-03 -1.520594E-04

 displacements (vx,vy,vz) for set TIPMARKER and time  0.1272500E+02

         2  3.395528E-04  9.606205E-03  1.165352E-04

 displacements (vx,vy,vz) for set TIPMARKER and time  0.1323125E+02

         2  3.560000E-04  1.938665E-02  1.618133E-04

 displacements (vx,vy,vz) for set TIPMARKER and time  0.1373750E+02

         2  3.639364E-04  2.175173E-02 -4.276020E-05

 displacements (vx,vy,vz) for set TIPMARKER and time  0.1424375E+02

         2  3.612943E-04  1.925429E-02 -3.460161E-04

 displacements (vx,vy,vz) for set TIPMARKER and time  0.1475000E+02

         2  3.694842E-04  1.327490E-02 -5.229182E-04

 displacements (vx,vy,vz) for set TIPMARKER and time  0.1525625E+02

         2  3.860732E-04  3.246578E-03 -4.414101E-04

 displacements (vx,vy,vz) for set TIPMARKER and time  0.1576250E+02

         2  4.072158E-04 -1.197763E-02 -1.627080E-04

 displacements (vx,vy,vz) for set TIPMARKER and time  0.1626875E+02

         2  4.283875E-04 -3.164603E-02  9.449326E-05

 displacements (vx,vy,vz) for set TIPMARKER and time  0.1677500E+02

         2  4.450553E-04 -5.149856E-02  1.125688E-04

 displacements (vx,vy,vz) for set TIPMARKER and time  0.1728125E+02

         2  4.533550E-04 -6.479882E-02 -1.548692E-04

 displacements (vx,vy,vz) for set TIPMARKER and time  0.1778750E+02

         2  4.507958E-04 -6.570816E-02 -5.293751E-04

 displacements (vx,vy,vz) for set TIPMARKER and time  0.1829375E+02

         2  4.587055E-04 -5.285439E-02 -7.316559E-04

 displacements (vx,vy,vz) for set TIPMARKER and time  0.1880000E+02

         2  4.749691E-04 -3.037315E-02 -5.913203E-04

 displacements (vx,vy,vz) for set TIPMARKER and time  0.1930625E+02

         2  4.957685E-04 -5.666288E-03 -1.790239E-04

 displacements (vx,vy,vz) for set TIPMARKER and time  0.1981250E+02

         2  5.167086E-04  1.430589E-02  2.317006E-04

 displacements (vx,vy,vz) for set TIPMARKER and time  0.2031875E+02

         2  5.333809E-04  2.584281E-02  3.570344E-04

 displacements (vx,vy,vz) for set TIPMARKER and time  0.2082500E+02

         2  5.419498E-04  2.897284E-02  1.080186E-04

 displacements (vx,vy,vz) for set TIPMARKER and time  0.2133125E+02

         2  5.398352E-04  2.585015E-02 -3.355192E-04

 displacements (vx,vy,vz) for set TIPMARKER and time  0.2183750E+02

         2  5.475683E-04  1.850417E-02 -6.476127E-04

 displacements (vx,vy,vz) for set TIPMARKER and time  0.2234375E+02

         2  5.637060E-04  7.480468E-03 -5.965164E-04

 displacements (vx,vy,vz) for set TIPMARKER and time  0.2285000E+02

         2  5.844431E-04 -7.603248E-03 -2.173397E-04

 displacements (vx,vy,vz) for set TIPMARKER and time  0.2335625E+02

         2  6.054015E-04 -2.614038E-02  2.062991E-04

 displacements (vx,vy,vz) for set TIPMARKER and time  0.2386250E+02

         2  6.222209E-04 -4.490511E-02  3.443205E-04

 displacements (vx,vy,vz) for set TIPMARKER and time  0.2436875E+02

         2  6.310926E-04 -5.827528E-02  6.804415E-05

 displacements (vx,vy,vz) for set TIPMARKER and time  0.2487500E+02

         2  6.293802E-04 -6.075714E-02 -4.369718E-04

 displacements (vx,vy,vz) for set TIPMARKER and time  0.2538125E+02

         2  6.368605E-04 -5.020892E-02 -7.986679E-04

 displacements (vx,vy,vz) for set TIPMARKER and time  0.2588750E+02

         2  6.527434E-04 -2.937889E-02 -7.351319E-04

 displacements (vx,vy,vz) for set TIPMARKER and time  0.2639375E+02

         2  6.732081E-04 -4.690772E-03 -2.671927E-04

 displacements (vx,vy,vz) for set TIPMARKER and time  0.2690000E+02

         2  6.939673E-04  1.681316E-02  2.853014E-04

 displacements (vx,vy,vz) for set TIPMARKER and time  0.2740625E+02

         2  7.107782E-04  3.035685E-02  5.302969E-04

 displacements (vx,vy,vz) for set TIPMARKER and time  0.2791250E+02

         2  7.198806E-04  3.465949E-02  2.880146E-04

 displacements (vx,vy,vz) for set TIPMARKER and time  0.2841875E+02

         2  7.185851E-04  3.124740E-02 -2.691354E-04

 displacements (vx,vy,vz) for set TIPMARKER and time  0.2892500E+02

         2  7.258812E-04  2.256959E-02 -7.332593E-04

 displacements (vx,vy,vz) for set TIPMARKER and time  0.2943125E+02

         2  7.416364E-04  1.030541E-02 -7.606929E-04

 displacements (vx,vy,vz) for set TIPMARKER and time  0.2993750E+02

         2  7.620282E-04 -4.943808E-03 -3.269263E-04

 displacements (vx,vy,vz) for set TIPMARKER and time  0.3000000E+02

         2  7.645469E-04 -7.022807E-03 -2.491260E-04
