
 displacements (vx,vy,vz) for set NALL and time  0.1000000E+00

         1  0.000000E+00  0.000000E+00  0.000000E+00
         2  0.000000E+00  0.000000E+00  0.000000E+00
         3  0.000000E+00  0.000000E+00  0.000000E+00
         4  0.000000E+00  0.000000E+00  0.000000E+00
         5  5.894390E-09  8.894582E-08 -2.443310E-09
         6  5.882177E-09  8.816169E-08 -2.847603E-09
         7  4.116594E-09  8.903988E-08 -3.715158E-09
         8  4.093687E-09  8.817072E-08 -3.432437E-09
         9  6.962562E-10  9.905221E-10 -3.226259E-10
        10  1.355731E-09  3.444173E-09 -5.567381E-10
        11  1.857986E-09  7.658797E-09 -9.182599E-10
        12  2.517667E-09  1.365670E-08 -1.201991E-09
        13  3.066162E-09  2.152041E-08 -1.546239E-09
        14  3.654519E-09  3.113906E-08 -1.835767E-09
        15  4.276951E-09  4.262289E-08 -2.172713E-09
        16  4.791385E-09  5.591416E-08 -2.518988E-09
        17  5.381661E-09  7.099848E-08 -2.708259E-09
        18  7.147085E-10  7.975934E-10  4.447480E-11
        19  1.404242E-09  3.517686E-09 -1.903778E-10
        20  1.897502E-09  7.795005E-09 -5.738152E-10
        21  2.554213E-09  1.399405E-08 -8.620629E-10
        22  3.106858E-09  2.194514E-08 -1.198888E-09
        23  3.691285E-09  3.175231E-08 -1.493318E-09
        24  4.316206E-09  4.332879E-08 -1.835516E-09
        25  4.837658E-09  5.678898E-08 -2.144789E-09
        26  5.383501E-09  7.213042E-08 -2.322047E-09
        27  5.192560E-10  9.315693E-10  6.522999E-11
        28  1.017828E-09  3.489297E-09 -3.009477E-10
        29  1.342253E-09  7.714105E-09 -7.574098E-10
        30  1.818751E-09  1.370751E-08 -1.239334E-09
        31  2.182602E-09  2.157901E-08 -1.673370E-09
        32  2.595522E-09  3.118617E-08 -2.146431E-09
        33  3.026614E-09  4.269088E-08 -2.589724E-09
        34  3.372757E-09  5.593982E-08 -3.092921E-09
        35  3.761460E-09  7.109416E-08 -3.371239E-09
        36  5.287430E-10  8.467602E-10 -1.482532E-10
        37  1.065648E-09  3.545689E-09 -5.416477E-10
        38  1.376807E-09  7.853107E-09 -1.009904E-09
        39  1.857341E-09  1.403093E-08 -1.483308E-09
        40  2.222761E-09  2.199588E-08 -1.916497E-09
        41  2.632448E-09  3.179267E-08 -2.393142E-09
        42  3.068079E-09  4.337532E-08 -2.833978E-09
        43  3.411252E-09  5.684874E-08 -3.327240E-09
        44  3.767397E-09  7.207662E-08 -3.572889E-09

 displacements (vx,vy,vz) for set NALL and time  0.2000000E+00

         1  0.000000E+00  0.000000E+00  0.000000E+00
         2  0.000000E+00  0.000000E+00  0.000000E+00
         3  0.000000E+00  0.000000E+00  0.000000E+00
         4  0.000000E+00  0.000000E+00  0.000000E+00
         5  2.576832E-08  2.618787E-07 -8.150836E-09
         6  2.572036E-08  2.595665E-07 -9.403741E-09
         7  2.052497E-08  2.622485E-07 -1.188927E-08
         8  2.044841E-08  2.596852E-07 -1.114237E-08
         9  2.975899E-09  2.800011E-09 -1.026016E-09
        10  5.767707E-09  9.938573E-09 -1.805772E-09
        11  8.058023E-09  2.233364E-08 -2.985540E-09
        12  1.083467E-08  3.999636E-08 -3.931181E-09
        13  1.329045E-08  6.315871E-08 -5.044274E-09
        14  1.585304E-08  9.150787E-08 -6.000763E-09
        15  1.852138E-08  1.253658E-07 -7.108679E-09
        16  2.084262E-08  1.645488E-07 -8.229380E-09
        17  2.348416E-08  2.089906E-07 -8.893191E-09
        18  3.039895E-09  2.233053E-09  1.297019E-10
        19  5.918866E-09  1.015608E-08 -6.491633E-10
        20  8.186686E-09  2.273309E-08 -1.884620E-09
        21  1.095310E-08  4.098661E-08 -2.846321E-09
        22  1.341985E-08  6.441046E-08 -3.938701E-09
        23  1.597187E-08  9.331368E-08 -4.911175E-09
        24  1.864900E-08  1.274418E-07 -6.027336E-09
        25  2.098906E-08  1.671267E-07 -7.049112E-09
        26  2.349981E-08  2.123232E-07 -7.674062E-09
        27  2.471412E-09  2.713970E-09  1.136019E-10
        28  4.774152E-09  1.015858E-08 -1.056750E-09
        29  6.540000E-09  2.258058E-08 -2.511338E-09
        30  8.777105E-09  4.022665E-08 -4.037490E-09
        31  1.068727E-08  6.341460E-08 -5.418078E-09
        32  1.273038E-08  9.173152E-08 -6.916320E-09
        33  1.483555E-08  1.256485E-07 -8.334605E-09
        34  1.666177E-08  1.647064E-07 -9.918080E-09
        35  1.871065E-08  2.093600E-07 -1.084568E-08
        36  2.505231E-09  2.465703E-09 -4.351768E-10
        37  4.926796E-09  1.032132E-08 -1.678034E-09
        38  6.653616E-09  2.298839E-08 -3.170370E-09
        39  8.900133E-09  4.117979E-08 -4.675920E-09
        40  1.081568E-08  6.464189E-08 -6.050386E-09
        41  1.285068E-08  9.351390E-08 -7.559003E-09
        42  1.496876E-08  1.276664E-07 -8.969573E-09
        43  1.678391E-08  1.673801E-07 -1.053098E-08
        44  1.874141E-08  2.122539E-07 -1.136359E-08

 displacements (vx,vy,vz) for set NALL and time  0.3000000E+00

         1  0.000000E+00  0.000000E+00  0.000000E+00
         2  0.000000E+00  0.000000E+00  0.000000E+00
         3  0.000000E+00  0.000000E+00  0.000000E+00
         4  0.000000E+00  0.000000E+00  0.000000E+00
         5  5.845641E-08  5.088870E-07 -1.662997E-08
         6  5.835262E-08  5.043694E-07 -1.912580E-08
         7  4.824632E-08  5.097053E-07 -2.391024E-08
         8  4.809073E-08  5.047025E-07 -2.254040E-08
         9  6.709825E-09  5.298751E-09 -2.061666E-09
        10  1.298121E-08  1.904676E-08 -3.650532E-09
        11  1.823807E-08  4.308743E-08 -6.043859E-09
        12  2.446173E-08  7.737845E-08 -7.977300E-09
        13  3.007561E-08  1.223657E-07 -1.022211E-08
        14  3.588024E-08  1.774658E-07 -1.216630E-08
        15  4.190168E-08  2.433070E-07 -1.441724E-08
        16  4.721007E-08  3.195249E-07 -1.667326E-08
        17  5.326584E-08  4.059647E-07 -1.805227E-08
        18  6.842764E-09  4.197567E-09  2.608526E-10
        19  1.328126E-08  1.947136E-08 -1.321344E-09
        20  1.849911E-08  4.386660E-08 -3.811639E-09
        21  2.470145E-08  7.930535E-08 -5.779669E-09
        22  3.033474E-08  1.248092E-07 -7.985397E-09
        23  3.612026E-08  1.809869E-07 -9.962578E-09
        24  4.215986E-08  2.473530E-07 -1.222052E-08
        25  4.750295E-08  3.245559E-07 -1.429784E-08
        26  5.330470E-08  4.124598E-07 -1.559751E-08
        27  5.751751E-09  5.221589E-09  1.561620E-10
        28  1.105369E-08  1.956163E-08 -2.195930E-09
        29  1.529196E-08  4.365180E-08 -5.120149E-09
        30  2.046673E-08  7.790600E-08 -8.180307E-09
        31  2.501794E-08  1.229460E-07 -1.095171E-08
        32  2.980783E-08  1.779855E-07 -1.395236E-08
        33  3.473377E-08  2.439376E-07 -1.680612E-08
        34  3.907696E-08  3.199145E-07 -1.996561E-08
        35  4.398057E-08  4.067704E-07 -2.185985E-08
        36  5.820611E-09  4.738156E-09 -8.383041E-10
        37  1.136110E-08  1.987639E-08 -3.321096E-09
        38  1.552351E-08  4.444564E-08 -6.321583E-09
        39  2.071368E-08  7.976567E-08 -9.347848E-09
        40  2.527581E-08  1.253402E-07 -1.210276E-08
        41  3.005168E-08  1.814569E-07 -1.512391E-08
        42  3.500167E-08  2.478778E-07 -1.796136E-08
        43  3.932100E-08  3.251229E-07 -2.108769E-08
        44  4.405282E-08  4.124175E-07 -2.280057E-08

 displacements (vx,vy,vz) for set NALL and time  0.4000000E+00

         1  0.000000E+00  0.000000E+00  0.000000E+00
         2  0.000000E+00  0.000000E+00  0.000000E+00
         3  0.000000E+00  0.000000E+00  0.000000E+00
         4  0.000000E+00  0.000000E+00  0.000000E+00
         5  1.023151E-07  8.214220E-07 -2.748511E-08
         6  1.021371E-07  8.141155E-07 -3.155506E-08
         7  8.582443E-08  8.228415E-07 -3.922218E-08
         8  8.556780E-08  8.147637E-07 -3.709716E-08
         9  1.171574E-08  8.408212E-09 -3.376959E-09
        10  2.263730E-08  3.050930E-08 -5.994376E-09
        11  3.189661E-08  6.932002E-08 -9.933062E-09
        12  4.271848E-08  1.246996E-07 -1.313407E-08
        13  5.258611E-08  1.973402E-07 -1.682038E-08
        14  6.273529E-08  2.863234E-07 -2.002840E-08
        15  7.324729E-08  3.926540E-07 -2.374162E-08
        16  8.257302E-08  5.157311E-07 -2.743832E-08
        17  9.323724E-08  6.552719E-07 -2.974657E-08
        18  1.193771E-08  6.639199E-09  4.336178E-10
        19  2.312448E-08  3.119345E-08 -2.165985E-09
        20  3.232646E-08  7.058088E-08 -6.247827E-09
        21  4.311360E-08  1.278041E-07 -9.507514E-09
        22  5.300971E-08  2.012880E-07 -1.313250E-08
        23  6.313048E-08  2.920052E-07 -1.639536E-08
        24  7.367200E-08  3.991817E-07 -2.010959E-08
        25  8.305168E-08  5.238576E-07 -2.353624E-08
        26  9.330873E-08  6.657465E-07 -2.571217E-08
        27  1.019221E-08  8.377801E-09  1.952005E-10
        28  1.952395E-08  3.142292E-08 -3.654110E-09
        29  2.713947E-08  7.031220E-08 -8.445733E-09
        30  3.626768E-08  1.256270E-07 -1.345703E-08
        31  4.441996E-08  1.983551E-07 -1.800014E-08
        32  5.292682E-08  2.872440E-07 -2.291134E-08
        33  6.167388E-08  3.937469E-07 -2.759562E-08
        34  6.943952E-08  5.164427E-07 -3.275232E-08
        35  7.825043E-08  6.566546E-07 -3.589119E-08
        36  1.030429E-08  7.596773E-09 -1.338182E-09
        37  2.002784E-08  3.193035E-08 -5.386405E-09
        38  2.752225E-08  7.159202E-08 -1.030175E-08
        39  3.667247E-08  1.286293E-07 -1.526657E-08
        40  4.484224E-08  2.022216E-07 -1.977811E-08
        41  5.332899E-08  2.928413E-07 -2.472295E-08
        42  6.211277E-08  4.001137E-07 -2.937916E-08
        43  6.983821E-08  5.248398E-07 -3.449412E-08
        44  7.838028E-08  6.657760E-07 -3.734747E-08

 displacements (vx,vy,vz) for set NALL and time  0.5000000E+00

         1  0.000000E+00  0.000000E+00  0.000000E+00
         2  0.000000E+00  0.000000E+00  0.000000E+00
         3  0.000000E+00  0.000000E+00  0.000000E+00
         4  0.000000E+00  0.000000E+00  0.000000E+00
         5  1.552161E-07  1.182828E-06 -4.004745E-08
         6  1.549505E-07  1.172266E-06 -4.594789E-08
         7  1.314471E-07  1.184973E-06 -5.696070E-08
         8  1.310741E-07  1.173320E-06 -5.397931E-08
         9  1.775171E-08  1.193746E-08 -4.906840E-09
        10  3.426299E-08  4.363321E-08 -8.713249E-09
        11  4.837177E-08  9.948283E-08 -1.443944E-08
        12  6.471332E-08  1.792165E-07 -1.911329E-08
        13  7.972692E-08  2.838066E-07 -2.446577E-08
        14  9.511179E-08  4.119632E-07 -2.913620E-08
        15  1.110338E-07  5.651293E-07 -3.454163E-08
        16  1.252171E-07  7.424339E-07 -3.989271E-08
        17  1.414619E-07  9.434418E-07 -4.328400E-08
        18  1.807825E-08  9.399179E-09  6.442207E-10
        19  3.496525E-08  4.461661E-08 -3.126976E-09
        20  4.899709E-08  1.013089E-07 -9.045422E-09
        21  6.528938E-08  1.836876E-07 -1.380577E-08
        22  8.034008E-08  2.895067E-07 -1.907224E-08
        23  9.568733E-08  4.201563E-07 -2.382278E-08
        24  1.116509E-07  5.745425E-07 -2.921856E-08
        25  1.259099E-07  7.541650E-07 -3.420280E-08
        26  1.415726E-07  9.585363E-07 -3.739782E-08
        27  1.558593E-08  1.199161E-08  2.344464E-10
        28  2.978083E-08  4.502884E-08 -5.346150E-09
        29  4.152393E-08  1.009933E-07 -1.230090E-08
        30  5.542515E-08  1.806274E-07 -1.957440E-08
        31  6.796874E-08  2.853451E-07 -2.617164E-08
        32  8.098144E-08  4.133705E-07 -3.329442E-08
        33  9.436452E-08  5.667752E-07 -4.009931E-08
        34  1.062940E-07  7.435440E-07 -4.755915E-08
        35  1.198755E-07  9.455144E-07 -5.214511E-08
        36  1.574651E-08  1.086271E-08 -1.909958E-09
        37  3.051200E-08  4.576329E-08 -7.765293E-09
        38  4.208282E-08  1.028381E-07 -1.489588E-08
        39  5.601296E-08  1.849586E-07 -2.211251E-08
        40  6.858072E-08  2.909261E-07 -2.865921E-08
        41  8.156758E-08  4.214376E-07 -3.583117E-08
        42  9.500020E-08  5.759693E-07 -4.259365E-08
        43  1.068709E-07  7.556422E-07 -5.000639E-08
        44  1.200752E-07  9.586819E-07 -5.419142E-08

 displacements (vx,vy,vz) for set NALL and time  0.6000000E+00

         1  0.000000E+00  0.000000E+00  0.000000E+00
         2  0.000000E+00  0.000000E+00  0.000000E+00
         3  0.000000E+00  0.000000E+00  0.000000E+00
         4  0.000000E+00  0.000000E+00  0.000000E+00
         5  2.147165E-07  1.580863E-06 -5.381504E-08
         6  2.143526E-07  1.566715E-06 -6.171824E-08
         7  1.829392E-07  1.583826E-06 -7.640003E-08
         8  1.824386E-07  1.568253E-06 -7.249591E-08
         9  2.454374E-08  1.578619E-08 -6.582812E-09
        10  4.732430E-08  5.806033E-08 -1.168543E-08
        11  6.691366E-08  1.327197E-07 -1.936025E-08
        12  8.943681E-08  2.393386E-07 -2.565168E-08
        13  1.102535E-07  3.791654E-07 -3.282674E-08
        14  1.315221E-07  5.505053E-07 -3.910101E-08
        15  1.535207E-07  7.552700E-07 -4.636040E-08
        16  1.731800E-07  9.922831E-07 -5.351101E-08
        17  1.957156E-07  1.260933E-06 -5.810367E-08
        18  2.498600E-08  1.241270E-08  8.825083E-10
        19  4.825977E-08  5.936841E-08 -4.160714E-09
        20  6.775237E-08  1.351723E-07 -1.207792E-08
        21  9.021212E-08  2.453058E-07 -1.848538E-08
        22  1.110734E-07  3.867911E-07 -2.554877E-08
        23  1.322962E-07  5.614519E-07 -3.193030E-08
        24  1.543483E-07  7.678484E-07 -3.916511E-08
        25  1.741062E-07  1.007974E-06 -4.585251E-08
        26  1.958721E-07  1.281086E-06 -5.017599E-08
        27  2.167678E-08  1.596067E-08  2.728667E-10
        28  4.132968E-08  5.999727E-08 -7.194787E-09
        29  5.775801E-08  1.348153E-07 -1.651273E-08
        30  7.701756E-08  2.412942E-07 -2.626337E-08
        31  9.453605E-08  3.812915E-07 -3.511312E-08
        32  1.126278E-07  5.524628E-07 -4.465784E-08
        33  1.312411E-07  7.575328E-07 -5.378720E-08
        34  1.478814E-07  9.938514E-07 -6.376021E-08
        35  1.668709E-07  1.263776E-06 -6.994312E-08
        36  2.188898E-08  1.444732E-08 -2.530259E-09
        37  4.230826E-08  6.098527E-08 -1.035370E-08
        38  5.851043E-08  1.372799E-07 -1.989998E-08
        39  7.780622E-08  2.470830E-07 -2.958676E-08
        40  9.535509E-08  3.887563E-07 -3.836416E-08
        41  1.134163E-07  5.632368E-07 -4.797528E-08
        42  1.320910E-07  7.698345E-07 -5.704603E-08
        43  1.486531E-07  1.010002E-06 -6.697026E-08
        44  1.671514E-07  1.281389E-06 -7.263221E-08

 displacements (vx,vy,vz) for set NALL and time  0.7000000E+00

         1  0.000000E+00  0.000000E+00  0.000000E+00
         2  0.000000E+00  0.000000E+00  0.000000E+00
         3  0.000000E+00  0.000000E+00  0.000000E+00
         4  0.000000E+00  0.000000E+00  0.000000E+00
         5  2.780607E-07  1.994938E-06 -6.801232E-08
         6  2.775939E-07  1.977022E-06 -7.800027E-08
         7  2.379374E-07  1.998771E-06 -9.652158E-08
         8  2.373057E-07  1.979102E-06 -9.166577E-08
         9  3.177702E-08  1.972807E-08 -8.326841E-09
        10  6.121107E-08  7.295020E-08 -1.476547E-08
        11  8.666226E-08  1.671348E-07 -2.444675E-08
        12  1.157374E-07  3.016924E-07 -3.241278E-08
        13  1.427476E-07  4.781486E-07 -4.146741E-08
        14  1.702757E-07  6.944037E-07 -4.939658E-08
        15  1.987359E-07  9.528579E-07 -5.856799E-08
        16  2.242414E-07  1.252021E-06 -6.755933E-08
        17  2.534870E-07  1.591100E-06 -7.340004E-08
        18  3.234055E-08  1.549193E-08  1.141429E-09
        19  6.238614E-08  7.459332E-08 -5.206625E-09
        20  8.772098E-08  1.702509E-07 -1.517970E-08
        21  1.167200E-07  3.092214E-07 -2.329108E-08
        22  1.437802E-07  4.877922E-07 -3.220892E-08
        23  1.712560E-07  7.082279E-07 -4.027280E-08
        24  1.997803E-07  9.687462E-07 -4.940103E-08
        25  2.254074E-07  1.271859E-06 -5.783874E-08
        26  2.536927E-07  1.616533E-06 -6.333098E-08
        27  2.819145E-08  2.005491E-08  3.132193E-10
        28  5.364559E-08  7.546146E-08 -9.102721E-09
        29  7.510926E-08  1.698560E-07 -2.086445E-08
        30  1.000628E-07  3.042290E-07 -3.318135E-08
        31  1.229142E-07  4.808994E-07 -4.436507E-08
        32  1.464240E-07  6.969498E-07 -5.641566E-08
        33  1.706194E-07  9.557721E-07 -6.794992E-08
        34  1.923027E-07  1.254087E-06 -8.051212E-08
        35  2.170860E-07  1.594760E-06 -8.835205E-08
        36  2.845548E-08  1.813622E-08 -3.170222E-09
        37  5.487903E-08  7.672062E-08 -1.302562E-08
        38  7.606260E-08  1.729692E-07 -2.506448E-08
        39  1.010597E-07  3.115423E-07 -3.731481E-08
        40  1.239465E-07  4.903377E-07 -4.840263E-08
        41  1.474224E-07  7.105521E-07 -6.053765E-08
        42  1.716891E-07  9.713304E-07 -7.199612E-08
        43  1.932750E-07  1.274466E-06 -8.451167E-08
        44  2.174531E-07  1.617030E-06 -9.171261E-08

 displacements (vx,vy,vz) for set NALL and time  0.8000000E+00

         1  0.000000E+00  0.000000E+00  0.000000E+00
         2  0.000000E+00  0.000000E+00  0.000000E+00
         3  0.000000E+00  0.000000E+00  0.000000E+00
         4  0.000000E+00  0.000000E+00  0.000000E+00
         5  3.423918E-07  2.411041E-06 -8.209484E-08
         6  3.418204E-07  2.389334E-06 -9.415653E-08
         7  2.938903E-07  2.415760E-06 -1.165280E-07
         8  2.931284E-07  2.391993E-06 -1.107301E-07
         9  3.912966E-08  2.365362E-08 -1.006299E-08
        10  7.530061E-08  8.789672E-08 -1.782055E-08
        11  1.067370E-07  2.017470E-07 -2.947979E-08
        12  1.424361E-07  3.644478E-07 -3.911098E-08
        13  1.757527E-07  5.777649E-07 -5.002785E-08
        14  2.096327E-07  8.391961E-07 -5.960058E-08
        15  2.446452E-07  1.151617E-06 -7.066833E-08
        16  2.761049E-07  1.513214E-06 -8.146946E-08
        17  3.121731E-07  1.923008E-06 -8.856437E-08
        18  3.981495E-08  1.856617E-08  1.408335E-09
        19  7.671124E-08  8.986985E-08 -6.220651E-09
        20  1.080130E-07  2.055371E-07 -1.821863E-08
        21  1.436256E-07  3.735373E-07 -2.802239E-08
        22  1.769955E-07  5.894334E-07 -3.877931E-08
        23  2.108191E-07  8.558995E-07 -4.851295E-08
        24  2.459043E-07  1.170820E-06 -5.951598E-08
        25  2.775075E-07  1.537212E-06 -6.968407E-08
        26  3.124306E-07  1.953714E-06 -7.634774E-08
        27  3.482748E-08  2.415940E-08  3.537792E-10
        28  6.615148E-08  9.098784E-08 -1.098726E-08
        29  9.276940E-08  2.051061E-07 -2.516970E-08
        30  1.234833E-07  3.675754E-07 -4.003635E-08
        31  1.517801E-07  5.811484E-07 -5.354252E-08
        32  1.807951E-07  8.423427E-07 -6.808330E-08
        33  2.106659E-07  1.155187E-06 -8.200844E-08
        34  2.374943E-07  1.515797E-06 -9.713221E-08
        35  2.681899E-07  1.927492E-06 -1.066301E-07
        36  3.514149E-08  2.183052E-08 -3.804327E-09
        37  6.763588E-08  9.252590E-08 -1.566840E-08
        38  9.392283E-08  2.088697E-07 -3.016940E-08
        39  1.246876E-07  3.764150E-07 -4.497164E-08
        40  1.530231E-07  5.925668E-07 -5.835789E-08
        41  1.820029E-07  8.587741E-07 -7.300103E-08
        42  2.119521E-07  1.174013E-06 -8.683311E-08
        43  2.386654E-07  1.540398E-06 -1.019163E-07
        44  2.686475E-07  1.954434E-06 -1.106654E-07

 displacements (vx,vy,vz) for set NALL and time  0.9000000E+00

         1  0.000000E+00  0.000000E+00  0.000000E+00
         2  0.000000E+00  0.000000E+00  0.000000E+00
         3  0.000000E+00  0.000000E+00  0.000000E+00
         4  0.000000E+00  0.000000E+00  0.000000E+00
         5  4.047611E-07  2.807809E-06 -9.528897E-08
         6  4.040903E-07  2.782444E-06 -1.093212E-07
         7  3.482573E-07  2.813387E-06 -1.353933E-07
         8  3.473736E-07  2.785698E-06 -1.287009E-07
         9  4.626393E-08  2.733399E-08 -1.171154E-08
        10  8.894227E-08  1.020368E-07 -2.070403E-08
        11  1.262154E-07  2.345996E-07 -3.421093E-08
        12  1.683027E-07  4.241135E-07 -4.540962E-08
        13  2.077512E-07  6.725562E-07 -5.807198E-08
        14  2.477851E-07  9.770594E-07 -6.918646E-08
        15  2.891399E-07  1.340951E-06 -8.203158E-08
        16  3.263936E-07  1.762110E-06 -9.450997E-08
        17  3.690851E-07  2.239389E-06 -1.027921E-07
        18  4.706563E-08  2.144530E-08  1.674766E-09
        19  9.057285E-08  1.043199E-07 -7.144879E-09
        20  1.276949E-07  2.390471E-07 -2.103332E-08
        21  1.696885E-07  4.346957E-07 -3.242807E-08
        22  2.091906E-07  6.861714E-07 -4.491063E-08
        23  2.491665E-07  9.965207E-07 -5.620953E-08
        24  2.906004E-07  1.363330E-06 -6.896638E-08
        25  3.280169E-07  1.790104E-06 -8.074766E-08
        26  3.693937E-07  2.275135E-06 -8.851554E-08
        27  4.128915E-08  2.803854E-08  3.969430E-10
        28  7.828522E-08  1.056857E-07 -1.275176E-08
        29  1.099482E-07  2.385801E-07 -2.921235E-08
        30  1.462250E-07  4.278153E-07 -4.648535E-08
        31  1.798343E-07  6.765517E-07 -6.218422E-08
        32  2.141911E-07  9.807913E-07 -7.907210E-08
        33  2.495707E-07  1.345149E-06 -9.525017E-08
        34  2.814133E-07  1.765206E-06 -1.127745E-07
        35  3.178680E-07  2.244668E-06 -1.238401E-07
        36  4.164857E-08  2.531149E-08 -4.403440E-09
        37  8.000416E-08  1.075001E-07 -1.815585E-08
        38  1.112908E-07  2.429687E-07 -3.496587E-08
        39  1.476253E-07  4.381182E-07 -5.218178E-08
        40  1.812747E-07  6.898733E-07 -6.773739E-08
        41  2.155969E-07  9.999321E-07 -8.474457E-08
        42  2.510585E-07  1.367118E-06 -1.008131E-07
        43  2.827704E-07  1.793844E-06 -1.183065E-07
        44  3.184147E-07  2.276099E-06 -1.285275E-07

 displacements (vx,vy,vz) for set NALL and time  0.1000000E+01

         1  0.000000E+00  0.000000E+00  0.000000E+00
         2  0.000000E+00  0.000000E+00  0.000000E+00
         3  0.000000E+00  0.000000E+00  0.000000E+00
         4  0.000000E+00  0.000000E+00  0.000000E+00
         5  4.623501E-07  3.171862E-06 -1.070954E-07
         6  4.615877E-07  3.143126E-06 -1.229074E-07
         7  3.985121E-07  3.178235E-06 -1.523757E-07
         8  3.975192E-07  3.146965E-06 -1.448729E-07
         9  5.286141E-08  3.067007E-08 -1.320082E-08
        10  1.015236E-07  1.149908E-07 -2.329216E-08
        11  1.442264E-07  2.647653E-07 -3.843811E-08
        12  1.921754E-07  4.789508E-07 -5.104504E-08
        13  2.373055E-07  7.596746E-07 -6.526779E-08
        14  2.830163E-07  1.103740E-06 -7.776473E-08
        15  3.302147E-07  1.514872E-06 -9.220071E-08
        16  3.728407E-07  1.990661E-06 -1.061596E-07
        17  4.216537E-07  2.529803E-06 -1.155234E-07
        18  5.376929E-08  2.406619E-08  1.927713E-09
        19  1.033490E-07  1.175499E-07 -7.941124E-09
        20  1.458870E-07  2.698274E-07 -2.350576E-08
        21  1.937389E-07  4.908941E-07 -3.632705E-08
        22  2.389202E-07  7.750760E-07 -5.035458E-08
        23  2.845744E-07  1.125720E-06 -6.305546E-08
        24  3.318551E-07  1.540157E-06 -7.737858E-08
        25  3.746600E-07  2.022317E-06 -9.059521E-08
        26  4.220121E-07  2.570140E-06 -9.936479E-08
        27  4.727568E-08  3.158537E-08  4.408453E-10
        28  8.947789E-08  1.191490E-07 -1.432040E-08
        29  1.258436E-07  2.693228E-07 -3.282094E-08
        30  1.672233E-07  4.831839E-07 -5.225856E-08
        31  2.057668E-07  7.642330E-07 -6.993355E-08
        32  2.450536E-07  1.108015E-06 -8.893285E-08
        33  2.855198E-07  1.519643E-06 -1.071383E-07
        34  3.220160E-07  1.994243E-06 -1.268072E-07
        35  3.638109E-07  2.535811E-06 -1.392945E-07
        36  4.767416E-08  2.848803E-08 -4.943739E-09
        37  9.140463E-08  1.212268E-07 -2.038373E-08
        38  1.273568E-07  2.742850E-07 -3.925149E-08
        39  1.688003E-07  4.948247E-07 -5.864451E-08
        40  2.073833E-07  7.793006E-07 -7.615475E-08
        41  2.466383E-07  1.129630E-06 -9.528845E-08
        42  2.871864E-07  1.544494E-06 -1.133695E-07
        43  3.235394E-07  2.026558E-06 -1.330208E-07
        44  3.644428E-07  2.571360E-06 -1.445866E-07

 displacements (vx,vy,vz) for set NALL and time  0.1100000E+01

         1  0.000000E+00  0.000000E+00  0.000000E+00
         2  0.000000E+00  0.000000E+00  0.000000E+00
         3  0.000000E+00  0.000000E+00  0.000000E+00
         4  0.000000E+00  0.000000E+00  0.000000E+00
         5  5.124810E-07  3.484180E-06 -1.168508E-07
         6  5.116409E-07  3.452501E-06 -1.341721E-07
         7  4.423393E-07  3.491246E-06 -1.665900E-07
         8  4.412563E-07  3.456893E-06 -1.583935E-07
         9  5.861463E-08  3.346191E-08 -1.446159E-08
        10  1.124553E-07  1.259927E-07 -2.545888E-08
        11  1.599298E-07  2.905010E-07 -4.194951E-08
        12  2.129383E-07  5.258441E-07 -5.572936E-08
        13  2.630370E-07  8.342487E-07 -7.124227E-08
        14  3.136842E-07  1.212256E-06 -8.488454E-08
        15  3.659557E-07  1.663928E-06 -1.006365E-07
        16  4.132866E-07  2.186607E-06 -1.157938E-07
        17  4.674361E-07  2.778865E-06 -1.260693E-07
        18  5.961326E-08  2.626176E-08  2.158968E-09
        19  1.144408E-07  1.287812E-07 -8.561940E-09
        20  1.617398E-07  2.961098E-07 -2.550143E-08
        21  2.146519E-07  5.389589E-07 -3.950764E-08
        22  2.647962E-07  8.512003E-07 -5.481530E-08
        23  3.153911E-07  1.236409E-06 -6.867593E-08
        24  3.677452E-07  1.691724E-06 -8.429043E-08
        25  4.152663E-07  2.221437E-06 -9.868196E-08
        26  4.678394E-07  2.823146E-06 -1.082896E-07
        27  5.251637E-08  3.459138E-08  4.875151E-10
        28  9.921954E-08  1.305871E-07 -1.561101E-08
        29  1.397338E-07  2.955645E-07 -3.581131E-08
        30  1.855198E-07  5.305412E-07 -5.706252E-08
        31  2.283934E-07  8.392950E-07 -7.639473E-08
        32  2.719708E-07  1.217009E-06 -9.715991E-08
        33  3.168648E-07  1.669190E-06 -1.170606E-07
        34  3.574399E-07  2.190628E-06 -1.385044E-07
        35  4.039077E-07  2.785504E-06 -1.521876E-07
        36  5.294536E-08  3.116699E-08 -5.400107E-09
        37  1.013168E-07  1.329053E-07 -2.224415E-08
        38  1.413902E-07  3.010247E-07 -4.281450E-08
        39  1.872452E-07  5.433376E-07 -6.403852E-08
        40  2.301554E-07  8.558773E-07 -8.318740E-08
        41  2.737056E-07  1.240757E-06 -1.040994E-07
        42  3.186777E-07  1.696542E-06 -1.238632E-07
        43  3.591006E-07  2.226102E-06 -1.453057E-07
        44  4.046159E-07  2.824623E-06 -1.580137E-07

 displacements (vx,vy,vz) for set NALL and time  0.1200000E+01

         1  0.000000E+00  0.000000E+00  0.000000E+00
         2  0.000000E+00  0.000000E+00  0.000000E+00
         3  0.000000E+00  0.000000E+00  0.000000E+00
         4  0.000000E+00  0.000000E+00  0.000000E+00
         5  5.528209E-07  3.734436E-06 -1.241872E-07
         6  5.519191E-07  3.700367E-06 -1.426786E-07
         7  4.776349E-07  3.742061E-06 -1.774747E-07
         8  4.764838E-07  3.705256E-06 -1.687296E-07
         9  6.325958E-08  3.564118E-08 -1.543781E-08
        10  1.212327E-07  1.347683E-07 -2.710920E-08
        11  1.726032E-07  3.111202E-07 -4.459239E-08
        12  2.296319E-07  5.634902E-07 -5.926357E-08
        13  2.837561E-07  8.941272E-07 -7.574569E-08
        14  3.383690E-07  1.299377E-06 -9.025364E-08
        15  3.947048E-07  1.783549E-06 -1.069969E-07
        16  4.458542E-07  2.343781E-06 -1.230252E-07
        17  5.043045E-07  2.978547E-06 -1.340133E-07
        18  6.432961E-08  2.799111E-08  2.357097E-09
        19  1.233363E-07  1.377288E-07 -8.981272E-09
        20  1.745248E-07  3.171855E-07 -2.693547E-08
        21  2.314618E-07  5.775357E-07 -4.183781E-08
        22  2.856233E-07  9.123263E-07 -5.811072E-08
        23  3.401911E-07  1.325261E-06 -7.284551E-08
        24  3.966066E-07  1.813351E-06 -8.942779E-08
        25  4.479525E-07  2.381157E-06 -1.046900E-07
        26  5.047474E-07  3.025952E-06 -1.149458E-07
        27  5.675937E-08  3.697928E-08  5.351662E-10
        28  1.070381E-07  1.397041E-07 -1.656682E-08
        29  1.509485E-07  3.165952E-07 -3.805437E-08
        30  2.002292E-07  5.685623E-07 -6.069329E-08
        31  2.466222E-07  8.995631E-07 -8.129774E-08
        32  2.936447E-07  1.304518E-06 -1.034132E-07
        33  3.420957E-07  1.789196E-06 -1.246109E-07
        34  3.859818E-07  2.348172E-06 -1.473898E-07
        35  4.362329E-07  2.985688E-06 -1.620008E-07
        36  5.720913E-08  3.328423E-08 -5.754269E-09
        37  1.092610E-07  1.422306E-07 -2.365795E-08
        38  1.527151E-07  3.224572E-07 -4.550233E-08
        39  2.020685E-07  5.822818E-07 -6.813590E-08
        40  2.484933E-07  9.173640E-07 -8.854228E-08
        41  2.954952E-07  1.329964E-06 -1.108138E-07
        42  3.440165E-07  1.818558E-06 -1.318651E-07
        43  3.877455E-07  2.386150E-06 -1.546615E-07
        44  4.370065E-07  3.027676E-06 -1.682699E-07

 displacements (vx,vy,vz) for set NALL and time  0.1300000E+01

         1  0.000000E+00  0.000000E+00  0.000000E+00
         2  0.000000E+00  0.000000E+00  0.000000E+00
         3  0.000000E+00  0.000000E+00  0.000000E+00
         4  0.000000E+00  0.000000E+00  0.000000E+00
         5  5.813832E-07  3.908615E-06 -1.286421E-07
         6  5.804402E-07  3.872811E-06 -1.479094E-07
         7  5.026767E-07  3.916637E-06 -1.844104E-07
         8  5.014841E-07  3.878121E-06 -1.752842E-07
         9  6.656720E-08  3.706242E-08 -1.608131E-08
        10  1.274198E-07  1.407474E-07 -2.815632E-08
        11  1.816205E-07  3.253226E-07 -4.622240E-08
        12  2.414290E-07  5.895636E-07 -6.145008E-08
        13  2.984389E-07  9.356798E-07 -7.852148E-08
        14  3.558517E-07  1.359909E-06 -9.356087E-08
        15  4.150430E-07  1.866720E-06 -1.109094E-07
        16  4.689400E-07  2.453103E-06 -1.274235E-07
        17  5.304454E-07  3.117482E-06 -1.388777E-07
        18  6.768555E-08  2.913072E-08  2.515728E-09
        19  1.295932E-07  1.438146E-07 -9.168470E-09
        20  1.836094E-07  3.317353E-07 -2.771890E-08
        21  2.433348E-07  6.042584E-07 -4.317486E-08
        22  3.003713E-07  9.547695E-07 -6.003962E-08