
 displacements (vx,vy,vz) for set TIPMARKER and time  0.1000000E+00

         2 -1.029793E-07  1.553626E-12  4.733711E-09

 displacements (vx,vy,vz) for set TIPMARKER and time  0.2000000E+00

         2 -2.061591E-07  9.375473E-11  1.895893E-08

 displacements (vx,vy,vz) for set TIPMARKER and time  0.3500000E+00

         2 -3.606424E-07  4.055032E-10  5.705211E-08

 displacements (vx,vy,vz) for set TIPMARKER and time  0.5750000E+00

         2 -5.927937E-07  3.059493E-10  1.443955E-07

 displacements (vx,vy,vz) for set TIPMARKER and time  0.7437500E+00

         2 -7.665906E-07 -3.952977E-10  2.381734E-07

 displacements (vx,vy,vz) for set TIPMARKER and time  0.9125000E+00

         2 -9.408551E-07 -1.236238E-09  3.759339E-07

 displacements (vx,vy,vz) for set TIPMARKER and time  0.1081250E+01

         2 -1.114858E-06 -2.153347E-09  5.630571E-07

 displacements (vx,vy,vz) for set TIPMARKER and time  0.1334375E+01

         2 -1.376380E-06 -4.290131E-09  8.950745E-07

 displacements (vx,vy,vz) for set TIPMARKER and time  0.1587500E+01

         2 -1.637537E-06 -7.192778E-09  1.268399E-06

 displacements (vx,vy,vz) for set TIPMARKER and time  0.1840625E+01

         2 -1.899148E-06 -9.930608E-09  1.671253E-06

 displacements (vx,vy,vz) for set TIPMARKER and time  0.2220312E+01

         2 -2.290989E-06 -1.358501E-08  2.211580E-06

 displacements (vx,vy,vz) for set TIPMARKER and time  0.2789844E+01

         2 -2.878444E-06 -1.724126E-08  2.709457E-06

 displacements (vx,vy,vz) for set TIPMARKER and time  0.3003418E+01

         2  7.713437E-06 -7.564971E-04  4.488601E-07

 displacements (vx,vy,vz) for set TIPMARKER and time  0.3216992E+01

         2  1.832654E-05 -2.893480E-03 -6.363313E-06

 displacements (vx,vy,vz) for set TIPMARKER and time  0.3230341E+01

         2  1.897322E-05 -3.069292E-03 -6.932318E-06

 displacements (vx,vy,vz) for set TIPMARKER and time  0.3243689E+01

         2  1.967654E-05 -3.250317E-03 -7.518904E-06

 displacements (vx,vy,vz) for set TIPMARKER and time  0.3257037E+01

         2  2.028453E-05 -3.436305E-03 -8.122839E-06

 displacements (vx,vy,vz) for set TIPMARKER and time  0.3277060E+01

         2  2.134004E-05 -3.724201E-03 -9.059269E-06

 displacements (vx,vy,vz) for set TIPMARKER and time  0.3307094E+01

         2  2.277633E-05 -4.175115E-03 -1.052481E-05

 displacements (vx,vy,vz) for set TIPMARKER and time  0.3352145E+01

         2  2.506467E-05 -4.891678E-03 -1.283766E-05

 displacements (vx,vy,vz) for set TIPMARKER and time  0.3419721E+01

         2  2.838064E-05 -6.054831E-03 -1.659335E-05

 displacements (vx,vy,vz) for set TIPMARKER and time  0.3487297E+01

         2  3.177252E-05 -7.354260E-03 -2.081990E-05

 displacements (vx,vy,vz) for set TIPMARKER and time  0.3554873E+01

         2  3.510318E-05 -8.890254E-03 -2.585998E-05

 displacements (vx,vy,vz) for set TIPMARKER and time  0.3622449E+01

         2  3.848867E-05 -1.076914E-02 -3.209364E-05

 displacements (vx,vy,vz) for set TIPMARKER and time  0.3690026E+01

         2  4.183756E-05 -1.298207E-02 -3.955873E-05

 displacements (vx,vy,vz) for set TIPMARKER and time  0.3757602E+01

         2  4.521994E-05 -1.545489E-02 -4.811700E-05

 displacements (vx,vy,vz) for set TIPMARKER and time  0.3825178E+01

         2  4.858102E-05 -1.815521E-02 -5.767520E-05

 displacements (vx,vy,vz) for set TIPMARKER and time  0.3892754E+01

         2  5.195919E-05 -2.102807E-02 -6.802436E-05

 displacements (vx,vy,vz) for set TIPMARKER and time  0.3960331E+01

         2  5.532545E-05 -2.399133E-02 -7.896054E-05

 displacements (vx,vy,vz) for set TIPMARKER and time  0.4027907E+01

         2  5.869695E-05 -2.704483E-02 -9.053729E-05

 displacements (vx,vy,vz) for set TIPMARKER and time  0.4095483E+01

         2  6.206721E-05 -3.025920E-02 -1.030073E-04

 displacements (vx,vy,vz) for set TIPMARKER and time  0.4163059E+01

         2  6.543843E-05 -3.369697E-02 -1.166735E-04

 displacements (vx,vy,vz) for set TIPMARKER and time  0.4230635E+01

         2  6.881702E-05 -3.735378E-02 -1.317013E-04

 displacements (vx,vy,vz) for set TIPMARKER and time  0.4298212E+01

         2  7.219205E-05 -4.117796E-02 -1.480758E-04

 displacements (vx,vy,vz) for set TIPMARKER and time  0.4365788E+01

         2  7.557783E-05 -4.512252E-02 -1.657338E-04

 displacements (vx,vy,vz) for set TIPMARKER and time  0.4382682E+01

         2  7.641695E-05 -4.612175E-02 -1.703370E-04

 displacements (vx,vy,vz) for set TIPMARKER and time  0.4399576E+01

         2  7.727292E-05 -4.712038E-02 -1.749962E-04

 displacements (vx,vy,vz) for set TIPMARKER and time  0.4424917E+01

         2  7.852975E-05 -4.860932E-02 -1.820638E-04

 displacements (vx,vy,vz) for set TIPMARKER and time  0.4462929E+01

         2  8.044392E-05 -5.081009E-02 -1.928079E-04

 displacements (vx,vy,vz) for set TIPMARKER and time  0.4519946E+01

         2  8.328624E-05 -5.403024E-02 -2.091809E-04

 displacements (vx,vy,vz) for set TIPMARKER and time  0.4605472E+01

         2  8.757307E-05 -5.872346E-02 -2.343379E-04

 displacements (vx,vy,vz) for set TIPMARKER and time  0.4733762E+01

         2  9.398238E-05 -6.556766E-02 -2.740921E-04

 displacements (vx,vy,vz) for set TIPMARKER and time  0.4862051E+01

         2  1.004123E-04 -7.218402E-02 -3.168019E-04

 displacements (vx,vy,vz) for set TIPMARKER and time  0.4894123E+01

         2  1.020136E-04 -7.379309E-02 -3.279426E-04

 displacements (vx,vy,vz) for set TIPMARKER and time  0.4926195E+01

         2  1.036258E-04 -7.537470E-02 -3.392745E-04

 displacements (vx,vy,vz) for set TIPMARKER and time  0.4958268E+01

         2  1.052307E-04 -7.691972E-02 -3.507944E-04

 displacements (vx,vy,vz) for set TIPMARKER and time  0.5006376E+01

         2  1.076471E-04 -7.912872E-02 -3.681785E-04

 displacements (vx,vy,vz) for set TIPMARKER and time  0.5024417E+01

         2  1.085497E-04 -7.991540E-02 -3.746806E-04

 displacements (vx,vy,vz) for set TIPMARKER and time  0.5042457E+01

         2  1.094557E-04 -8.067572E-02 -3.811617E-04

 displacements (vx,vy,vz) for set TIPMARKER and time  0.5069518E+01

         2  1.108119E-04 -8.176791E-02 -3.908371E-04

 displacements (vx,vy,vz) for set TIPMARKER and time  0.5110110E+01

         2  1.128467E-04 -8.330326E-02 -4.051964E-04

 displacements (vx,vy,vz) for set TIPMARKER and time  0.5170997E+01

         2  1.158975E-04 -8.539153E-02 -4.263452E-04

 displacements (vx,vy,vz) for set TIPMARKER and time  0.5262328E+01

         2  1.204718E-04 -8.809581E-02 -4.572481E-04

 displacements (vx,vy,vz) for set TIPMARKER and time  0.5399325E+01

         2  1.273330E-04 -9.139004E-02 -5.020911E-04

 displacements (vx,vy,vz) for set TIPMARKER and time  0.5536321E+01

         2  1.341987E-04 -9.386861E-02 -5.453323E-04

 displacements (vx,vy,vz) for set TIPMARKER and time  0.5673317E+01

         2  1.410676E-04 -9.531134E-02 -5.852497E-04

 displacements (vx,vy,vz) for set TIPMARKER and time  0.5810314E+01

         2  1.479248E-04 -9.558269E-02 -6.188429E-04

 displacements (vx,vy,vz) for set TIPMARKER and time  0.5844563E+01

         2  1.496376E-04 -9.549196E-02 -6.261039E-04

 displacements (vx,vy,vz) for set TIPMARKER and time  0.5878812E+01

         2  1.513490E-04 -9.536608E-02 -6.329906E-04

 displacements (vx,vy,vz) for set TIPMARKER and time  0.5930185E+01

         2  1.539185E-04 -9.513411E-02 -6.429748E-04

 displacements (vx,vy,vz) for set TIPMARKER and time  0.6007246E+01

         2  1.577745E-04 -9.474240E-02 -6.574444E-04

 displacements (vx,vy,vz) for set TIPMARKER and time  0.6122837E+01

         2  1.635478E-04 -9.417068E-02 -6.748794E-04

 displacements (vx,vy,vz) for set TIPMARKER and time  0.6296223E+01

         2  1.721811E-04 -9.328664E-02 -6.914499E-04

 displacements (vx,vy,vz) for set TIPMARKER and time  0.6339569E+01

         2  1.743414E-04 -9.304007E-02 -6.944176E-04

 displacements (vx,vy,vz) for set TIPMARKER and time  0.6382916E+01

         2  1.764969E-04 -9.278822E-02 -6.966558E-04

 displacements (vx,vy,vz) for set TIPMARKER and time  0.6447935E+01

         2  1.797253E-04 -9.245924E-02 -6.991109E-04

 displacements (vx,vy,vz) for set TIPMARKER and time  0.6512955E+01

         2  1.829640E-04 -9.226336E-02 -7.021894E-04

 displacements (vx,vy,vz) for set TIPMARKER and time  0.6577975E+01

         2  1.862012E-04 -9.226931E-02 -7.047243E-04

 displacements (vx,vy,vz) for set TIPMARKER and time  0.6675504E+01

         2  1.910119E-04 -9.275013E-02 -7.053196E-04

 displacements (vx,vy,vz) for set TIPMARKER and time  0.6821799E+01

         2  1.982843E-04 -9.448015E-02 -7.172420E-04

 displacements (vx,vy,vz) for set TIPMARKER and time  0.6968093E+01

         2  2.056427E-04 -9.716517E-02 -7.424263E-04

 displacements (vx,vy,vz) for set TIPMARKER and time  0.7004667E+01

         2  2.074728E-04 -9.796237E-02 -7.478448E-04

 displacements (vx,vy,vz) for set TIPMARKER and time  0.7041241E+01

         2  2.092938E-04 -9.881968E-02 -7.519124E-04

 displacements (vx,vy,vz) for set TIPMARKER and time  0.7096101E+01

         2  2.120184E-04 -1.002446E-01 -7.559463E-04

 displacements (vx,vy,vz) for set TIPMARKER and time  0.7178392E+01

         2  2.160655E-04 -1.027411E-01 -7.571350E-04

 displacements (vx,vy,vz) for set TIPMARKER and time  0.7301828E+01

         2  2.221343E-04 -1.073003E-01 -7.609374E-04

 displacements (vx,vy,vz) for set TIPMARKER and time  0.7486981E+01

         2  2.313530E-04 -1.153878E-01 -7.929213E-04

 displacements (vx,vy,vz) for set TIPMARKER and time  0.7672135E+01

         2  2.406317E-04 -1.240194E-01 -8.433120E-04

 displacements (vx,vy,vz) for set TIPMARKER and time  0.7857289E+01

         2  2.498102E-04 -1.326360E-01 -8.850531E-04

 displacements (vx,vy,vz) for set TIPMARKER and time  0.7903578E+01

         2  2.520822E-04 -1.347847E-01 -8.935011E-04

 displacements (vx,vy,vz) for set TIPMARKER and time  0.7949866E+01

         2  2.543649E-04 -1.369244E-01 -9.037895E-04

 displacements (vx,vy,vz) for set TIPMARKER and time  0.8019299E+01

         2  2.578159E-04 -1.400579E-01 -9.243148E-04

 displacements (vx,vy,vz) for set TIPMARKER and time  0.8123448E+01

         2  2.630351E-04 -1.444019E-01 -9.642634E-04

 displacements (vx,vy,vz) for set TIPMARKER and time  0.8279672E+01

         2  2.708933E-04 -1.496932E-01 -1.029481E-03

 displacements (vx,vy,vz) for set TIPMARKER and time  0.8338255E+01

         2  2.738306E-04 -1.512457E-01 -1.051582E-03

 displacements (vx,vy,vz) for set TIPMARKER and time  0.8396839E+01

         2  2.767481E-04 -1.525787E-01 -1.069905E-03

 displacements (vx,vy,vz) for set TIPMARKER and time  0.8484715E+01

         2  2.810980E-04 -1.542510E-01 -1.092271E-03

 displacements (vx,vy,vz) for set TIPMARKER and time  0.8616529E+01

         2  2.876155E-04 -1.560395E-01 -1.126407E-03

 displacements (vx,vy,vz) for set TIPMARKER and time  0.8814249E+01

         2  2.975332E-04 -1.567497E-01 -1.214251E-03

 displacements (vx,vy,vz) for set TIPMARKER and time  0.9011970E+01

         2  3.076991E-04 -1.551765E-01 -1.334537E-03

 displacements (vx,vy,vz) for set TIPMARKER and time  0.9209690E+01

         2  3.176712E-04 -1.524617E-01 -1.394309E-03

 displacements (vx,vy,vz) for set TIPMARKER and time  0.9407411E+01

         2  3.273143E-04 -1.498841E-01 -1.373607E-03

 displacements (vx,vy,vz) for set TIPMARKER and time  0.9605131E+01

         2  3.371538E-04 -1.479769E-01 -1.362258E-03

 displacements (vx,vy,vz) for set TIPMARKER and time  0.9802852E+01

         2  3.471038E-04 -1.473838E-01 -1.353482E-03

 displacements (vx,vy,vz) for set TIPMARKER and time  0.1000057E+02

         2  3.567339E-04 -1.491587E-01 -1.285103E-03

 displacements (vx,vy,vz) for set TIPMARKER and time  0.1019829E+02

         2  3.662798E-04 -1.535353E-01 -1.209301E-03

 displacements (vx,vy,vz) for set TIPMARKER and time  0.1039601E+02

         2  3.761029E-04 -1.598325E-01 -1.198057E-03

 displacements (vx,vy,vz) for set TIPMARKER and time  0.1059373E+02

         2  3.859400E-04 -1.674961E-01 -1.213512E-03

 displacements (vx,vy,vz) for set TIPMARKER and time  0.1089031E+02

         2  4.004442E-04 -1.799701E-01 -1.246205E-03

 displacements (vx,vy,vz) for set TIPMARKER and time  0.1096446E+02

         2  4.040989E-04 -1.830098E-01 -1.268588E-03

 displacements (vx,vy,vz) for set TIPMARKER and time  0.1103861E+02

         2  4.078259E-04 -1.858067E-01 -1.306644E-03

 displacements (vx,vy,vz) for set TIPMARKER and time  0.1114982E+02

         2  4.134937E-04 -1.894098E-01 -1.379841E-03

 displacements (vx,vy,vz) for set TIPMARKER and time  0.1131665E+02

         2  4.218830E-04 -1.934736E-01 -1.474190E-03

 displacements (vx,vy,vz) for set TIPMARKER and time  0.1148348E+02

         2  4.301338E-04 -1.959223E-01 -1.541244E-03

 displacements (vx,vy,vz) for set TIPMARKER and time  0.1165030E+02

         2  4.384892E-04 -1.965584E-01 -1.615857E-03

 displacements (vx,vy,vz) for set TIPMARKER and time  0.1190054E+02

         2  4.511956E-04 -1.943072E-01 -1.724408E-03

 displacements (vx,vy,vz) for set TIPMARKER and time  0.1215078E+02

         2  4.636725E-04 -1.899471E-01 -1.745534E-03

 displacements (vx,vy,vz) for set TIPMARKER and time  0.1240102E+02

         2  4.760047E-04 -1.857932E-01 -1.703279E-03

 displacements (vx,vy,vz) for set TIPMARKER and time  0.1246358E+02

         2  4.791289E-04 -1.849568E-01 -1.695082E-03

 displacements (vx,vy,vz) for set TIPMARKER and time  0.1252614E+02

         2  4.822717E-04 -1.842462E-01 -1.689031E-03

 displacements (vx,vy,vz) for set TIPMARKER and time  0.1261998E+02

         2  4.869611E-04 -1.835080E-01 -1.674499E-03

 displacements (vx,vy,vz) for set TIPMARKER and time  0.1265517E+02

         2  4.887012E-04 -1.833543E-01 -1.665737E-03

 displacements (vx,vy,vz) for set TIPMARKER and time  0.1269036E+02

         2  4.904268E-04 -1.832839E-01 -1.654517E-03

 displacements (vx,vy,vz) for set TIPMARKER and time  0.1272555E+02

         2  4.921411E-04 -1.833047E-01 -1.641372E-03

 displacements (vx,vy,vz) for set TIPMARKER and time  0.1277834E+02

         2  4.946965E-04 -1.835181E-01 -1.619695E-03

 displacements (vx,vy,vz) for set TIPMARKER and time  0.1285752E+02

         2  4.985214E-04 -1.842397E-01 -1.588249E-03

 displacements (vx,vy,vz) for set TIPMARKER and time  0.1288721E+02

         2  4.999626E-04 -1.846295E-01 -1.578333E-03

 displacements (vx,vy,vz) for set TIPMARKER and time  0.1291690E+02

         2  5.014150E-04 -1.850782E-01 -1.570537E-03

 displacements (vx,vy,vz) for set TIPMARKER and time  0.1296144E+02

         2  5.036108E-04 -1.858537E-01 -1.562731E-03

 displacements (vx,vy,vz) for set TIPMARKER and time  0.1302824E+02

         2  5.069294E-04 -1.872272E-01 -1.557903E-03

 displacements (vx,vy,vz) for set TIPMARKER and time  0.1305329E+02

         2  5.081784E-04 -1.878030E-01 -1.557629E-03

 displacements (vx,vy,vz) for set TIPMARKER and time  0.1307835E+02

         2  5.094235E-04 -1.884104E-01 -1.557499E-03

 displacements (vx,vy,vz) for set TIPMARKER and time  0.1311592E+02

         2  5.112855E-04 -1.893803E-01 -1.557498E-03

 displacements (vx,vy,vz) for set TIPMARKER and time  0.1317229E+02

         2  5.140804E-04 -1.909721E-01 -1.558394E-03

 displacements (vx,vy,vz) for set TIPMARKER and time  0.1325684E+02

         2  5.182381E-04 -1.936791E-01 -1.558015E-03

 displacements (vx,vy,vz) for set TIPMARKER and time  0.1338367E+02

         2  5.244166E-04 -1.983602E-01 -1.559020E-03

 displacements (vx,vy,vz) for set TIPMARKER and time  0.1357391E+02

         2  5.337903E-04 -2.059695E-01 -1.599389E-03

 displacements (vx,vy,vz) for set TIPMARKER and time  0.1362147E+02

         2  5.361646E-04 -2.078715E-01 -1.618835E-03

 displacements (vx,vy,vz) for set TIPMARKER and time  0.1366903E+02

         2  5.385499E-04 -2.097152E-01 -1.640769E-03

 displacements (vx,vy,vz) for set TIPMARKER and time  0.1374037E+02

         2  5.421184E-04 -2.123438E-01 -1.673605E-03

 displacements (vx,vy,vz) for set TIPMARKER and time  0.1376712E+02

         2  5.434482E-04 -2.132846E-01 -1.685129E-03

 displacements (vx,vy,vz) for set TIPMARKER and time  0.1379388E+02

         2  5.447765E-04 -2.142002E-01 -1.696230E-03

 displacements (vx,vy,vz) for set TIPMARKER and time  0.1383401E+02

         2  5.467660E-04 -2.155273E-01 -1.712048E-03

 displacements (vx,vy,vz) for set TIPMARKER and time  0.1389420E+02

         2  5.497317E-04 -2.174066E-01 -1.733235E-03

 displacements (vx,vy,vz) for set TIPMARKER and time  0.1398449E+02

         2  5.541724E-04 -2.199125E-01 -1.764384E-03

 displacements (vx,vy,vz) for set TIPMARKER and time  0.1407478E+02

         2  5.586659E-04 -2.219316E-01 -1.802159E-03

 displacements (vx,vy,vz) for set TIPMARKER and time  0.1416507E+02

         2  5.632096E-04 -2.233428E-01 -1.845511E-03

 displacements (vx,vy,vz) for set TIPMARKER and time  0.1430050E+02

         2  5.700266E-04 -2.242445E-01 -1.901392E-03

 displacements (vx,vy,vz) for set TIPMARKER and time  0.1450366E+02

         2  5.801408E-04 -2.233149E-01 -1.940148E-03

 displacements (vx,vy,vz) for set TIPMARKER and time  0.1480839E+02

         2  5.952961E-04 -2.185361E-01 -1.943158E-03

 displacements (vx,vy,vz) for set TIPMARKER and time  0.1511311E+02

         2  6.105152E-04 -2.124080E-01 -1.913063E-03

 displacements (vx,vy,vz) for set TIPMARKER and time  0.1541784E+02

         2  6.255567E-04 -2.089789E-01 -1.848190E-03

 displacements (vx,vy,vz) for set TIPMARKER and time  0.1572257E+02

         2  6.405686E-04 -2.111937E-01 -1.816475E-03

 displacements (vx,vy,vz) for set TIPMARKER and time  0.1602730E+02

         2  6.556526E-04 -2.188667E-01 -1.856372E-03

 displacements (vx,vy,vz) for set TIPMARKER and time  0.1614157E+02

         2  6.612759E-04 -2.227963E-01 -1.880400E-03

 displacements (vx,vy,vz) for set TIPMARKER and time  0.1625585E+02

         2  6.668859E-04 -2.270568E-01 -1.907164E-03

 displacements (vx,vy,vz) for set TIPMARKER and time  0.1637012E+02

         2  6.725140E-04 -2.314207E-01 -1.941404E-03

 displacements (vx,vy,vz) for set TIPMARKER and time  0.1641297E+02

         2  6.746290E-04 -2.330210E-01 -1.956133E-03

 displacements (vx,vy,vz) for set TIPMARKER and time  0.1645582E+02

         2  6.767428E-04 -2.345635E-01 -1.971968E-03

 displacements (vx,vy,vz) for set TIPMARKER and time  0.1649868E+02

         2  6.788375E-04 -2.360328E-01 -1.987541E-03

 displacements (vx,vy,vz) for set TIPMARKER and time  0.1654153E+02

         2  6.810237E-04 -2.374153E-01 -2.007825E-03

 displacements (vx,vy,vz) for set TIPMARKER and time  0.1658438E+02

         2  6.832581E-04 -2.386955E-01 -2.027721E-03

 displacements (vx,vy,vz) for set TIPMARKER and time  0.1660045E+02

         2  6.840442E-04 -2.391458E-01 -2.030056E-03

 displacements (vx,vy,vz) for set TIPMARKER and time  0.1661652E+02

         2  6.847675E-04 -2.395789E-01 -2.027076E-03

 displacements (vx,vy,vz) for set TIPMARKER and time  0.1664063E+02

         2  6.858253E-04 -2.401984E-01 -2.020346E-03

 displacements (vx,vy,vz) for set TIPMARKER and time  0.1667678E+02

         2  6.875861E-04 -2.410660E-01 -2.022524E-03

 displacements (vx,vy,vz) for set TIPMARKER and time  0.1673102E+02

         2  6.903276E-04 -2.422335E-01 -2.036930E-03

 displacements (vx,vy,vz) for set TIPMARKER and time  0.1681237E+02

         2  6.943349E-04 -2.436633E-01 -2.055904E-03

 displacements (vx,vy,vz) for set TIPMARKER and time  0.1684288E+02

         2  6.958883E-04 -2.440908E-01 -2.065799E-03

 displacements (vx,vy,vz) for set TIPMARKER and time  0.1687338E+02

         2  6.974197E-04 -2.444503E-01 -2.074045E-03

 displacements (vx,vy,vz) for set TIPMARKER and time  0.1690389E+02

         2  6.989029E-04 -2.447433E-01 -2.078598E-03

 displacements (vx,vy,vz) for set TIPMARKER and time  0.1694965E+02

         2  7.011805E-04 -2.450567E-01 -2.089255E-03

 displacements (vx,vy,vz) for set TIPMARKER and time  0.1701829E+02

         2  7.047156E-04 -2.452147E-01 -2.111291E-03

 displacements (vx,vy,vz) for set TIPMARKER and time  0.1712126E+02

         2  7.097751E-04 -2.447327E-01 -2.106691E-03

 displacements (vx,vy,vz) for set TIPMARKER and time  0.1715987E+02

         2  7.115714E-04 -2.443407E-01 -2.092815E-03

 displacements (vx,vy,vz) for set TIPMARKER and time  0.1719848E+02

         2  7.134836E-04 -2.438568E-01 -2.088318E-03

 displacements (vx,vy,vz) for set TIPMARKER and time  0.1725639E+02

         2  7.164345E-04 -2.429960E-01 -2.089857E-03

 displacements (vx,vy,vz) for set TIPMARKER and time  0.1734327E+02

         2  7.207251E-04 -2.414530E-01 -2.083889E-03

 displacements (vx,vy,vz) for set TIPMARKER and time  0.1747358E+02

         2  7.272759E-04 -2.387347E-01 -2.082741E-03

 displacements (vx,vy,vz) for set TIPMARKER and time  0.1752245E+02

         2  7.297478E-04 -2.376238E-01 -2.083958E-03

 displacements (vx,vy,vz) for set TIPMARKER and time  0.1757131E+02

         2  7.322087E-04 -2.364810E-01 -2.082377E-03

 displacements (vx,vy,vz) for set TIPMARKER and time  0.1764461E+02

         2  7.358535E-04 -2.347416E-01 -2.068574E-03

 displacements (vx,vy,vz) for set TIPMARKER and time  0.1775456E+02

         2  7.411632E-04 -2.322548E-01 -2.033981E-03

 displacements (vx,vy,vz) for set TIPMARKER and time  0.1791949E+02

         2  7.494461E-04 -2.294532E-01 -2.017888E-03

 displacements (vx,vy,vz) for set TIPMARKER and time  0.1798134E+02

         2  7.525408E-04 -2.287981E-01 -2.011953E-03

 displacements (vx,vy,vz) for set TIPMARKER and time  0.1804318E+02

         2  7.555382E-04 -2.283905E-01 -1.998842E-03

 displacements (vx,vy,vz) for set TIPMARKER and time  0.1813595E+02

         2  7.602070E-04 -2.282554E-01 -1.996298E-03

 displacements (vx,vy,vz) for set TIPMARKER and time  0.1827511E+02

         2  7.670453E-04 -2.291214E-01 -1.983868E-03

 displacements (vx,vy,vz) for set TIPMARKER and time  0.1832729E+02

         2  7.695277E-04 -2.297773E-01 -1.974076E-03

 displacements (vx,vy,vz) for set TIPMARKER and time  0.1837948E+02

         2  7.720847E-04 -2.306288E-01 -1.974999E-03

 displacements (vx,vy,vz) for set TIPMARKER and time  0.1845775E+02

         2  7.759961E-04 -2.322937E-01 -1.995149E-03

 displacements (vx,vy,vz) for set TIPMARKER and time  0.1857516E+02

         2  7.818779E-04 -2.355329E-01 -2.041249E-03

 displacements (vx,vy,vz) for set TIPMARKER and time  0.1858617E+02

         2  7.824245E-04 -2.358759E-01 -2.045645E-03

 displacements (vx,vy,vz) for set TIPMARKER and time  0.1859718E+02

         2  7.829685E-04 -2.362237E-01 -2.049803E-03

 displacements (vx,vy,vz) for set TIPMARKER and time  0.1861369E+02

         2  7.837766E-04 -2.367543E-01 -2.055446E-03

 displacements (vx,vy,vz) for set TIPMARKER and time  0.1863846E+02

         2  7.849816E-04 -2.375688E-01 -2.063517E-03

 displacements (vx,vy,vz) for set TIPMARKER and time  0.1867561E+02

         2  7.868271E-04 -2.388271E-01 -2.079116E-03

 displacements (vx,vy,vz) for set TIPMARKER and time  0.1873133E+02

         2  7.896370E-04 -2.407747E-01 -2.105079E-03

 displacements (vx,vy,vz) for set TIPMARKER and time  0.1881492E+02

         2  7.936855E-04 -2.437501E-01 -2.127506E-03

 displacements (vx,vy,vz) for set TIPMARKER and time  0.1894030E+02

         2  7.997882E-04 -2.481970E-01 -2.168253E-03

 displacements (vx,vy,vz) for set TIPMARKER and time  0.1898732E+02

         2  8.021771E-04 -2.498416E-01 -2.195504E-03

 displacements (vx,vy,vz) for set TIPMARKER and time  0.1903434E+02

         2  8.045394E-04 -2.514519E-01 -2.221868E-03

 displacements (vx,vy,vz) for set TIPMARKER and time  0.1910486E+02

         2  8.080400E-04 -2.537380E-01 -2.254557E-03

 displacements (vx,vy,vz) for set TIPMARKER and time  0.1921065E+02

         2  8.132760E-04 -2.567112E-01 -2.291766E-03

 displacements (vx,vy,vz) for set TIPMARKER and time  0.1936934E+02

         2  8.210844E-04 -2.597895E-01 -2.316547E-03

 displacements (vx,vy,vz) for set TIPMARKER and time  0.1960737E+02

         2  8.327906E-04 -2.609930E-01 -2.309376E-03

 displacements (vx,vy,vz) for set TIPMARKER and time  0.1996441E+02

         2  8.505665E-04 -2.565194E-01 -2.254452E-03

 displacements (vx,vy,vz) for set TIPMARKER and time  0.2032146E+02

         2  8.682152E-04 -2.485491E-01 -2.146765E-03

 displacements (vx,vy,vz) for set TIPMARKER and time  0.2067850E+02

         2  8.859475E-04 -2.437053E-01 -2.123257E-03

 displacements (vx,vy,vz) for set TIPMARKER and time  0.2076776E+02

         2  8.904583E-04 -2.436289E-01 -2.147303E-03

 displacements (vx,vy,vz) for set TIPMARKER and time  0.2085702E+02

         2  8.948832E-04 -2.441133E-01 -2.167661E-03

 displacements (vx,vy,vz) for set TIPMARKER and time  0.2099091E+02

         2  9.014834E-04 -2.458774E-01 -2.202190E-03

 displacements (vx,vy,vz) for set TIPMARKER and time  0.2119175E+02

         2  9.114344E-04 -2.506363E-01 -2.281490E-03

 displacements (vx,vy,vz) for set TIPMARKER and time  0.2126706E+02

         2  9.151505E-04 -2.529891E-01 -2.317058E-03

 displacements (vx,vy,vz) for set TIPMARKER and time  0.2128589E+02

         2  9.160847E-04 -2.536145E-01 -2.326877E-03

 displacements (vx,vy,vz) for set TIPMARKER and time  0.2130472E+02

         2  9.170282E-04 -2.542517E-01 -2.337580E-03

 displacements (vx,vy,vz) for set TIPMARKER and time  0.2133296E+02

         2  9.184518E-04 -2.552252E-01 -2.354351E-03

 displacements (vx,vy,vz) for set TIPMARKER and time  0.2137533E+02

         2  9.205745E-04 -2.567091E-01 -2.377596E-03

 displacements (vx,vy,vz) for set TIPMARKER and time  0.2143887E+02

         2  9.237052E-04 -2.589422E-01 -2.403776E-03

 displacements (vx,vy,vz) for set TIPMARKER and time  0.2146270E+02

         2  9.248653E-04 -2.597742E-01 -2.410876E-03

 displacements (vx,vy,vz) for set TIPMARKER and time  0.2148653E+02

         2  9.260213E-04 -2.606006E-01 -2.416992E-03

 displacements (vx,vy,vz) for set TIPMARKER and time  0.2152228E+02

         2  9.277590E-04 -2.618287E-01 -2.425718E-03

 displacements (vx,vy,vz) for set TIPMARKER and time  0.2157590E+02

         2  9.303934E-04 -2.636296E-01 -2.439750E-03

 displacements (vx,vy,vz) for set TIPMARKER and time  0.2165632E+02

         2  9.343380E-04 -2.661771E-01 -2.457274E-03

 displacements (vx,vy,vz) for set TIPMARKER and time  0.2167643E+02

         2  9.353144E-04 -2.667808E-01 -2.460183E-03

 displacements (vx,vy,vz) for set TIPMARKER and time  0.2169653E+02

         2  9.362901E-04 -2.673704E-01 -2.462827E-03

 displacements (vx,vy,vz) for set TIPMARKER and time  0.2172669E+02

         2  9.377683E-04 -2.682253E-01 -2.467750E-03

 displacements (vx,vy,vz) for set TIPMARKER and time  0.2177193E+02

         2  9.400161E-04 -2.694329E-01 -2.476933E-03

 displacements (vx,vy,vz) for set TIPMARKER and time  0.2181717E+02

         2  9.422673E-04 -2.705332E-01 -2.484670E-03

 displacements (vx,vy,vz) for set TIPMARKER and time  0.2186241E+02

         2  9.445028E-04 -2.715014E-01 -2.488033E-03

 displacements (vx,vy,vz) for set TIPMARKER and time  0.2190765E+02

         2  9.467230E-04 -2.723185E-01 -2.486103E-03

 displacements (vx,vy,vz) for set TIPMARKER and time  0.2197551E+02

         2  9.500301E-04 -2.732428E-01 -2.474174E-03

 displacements (vx,vy,vz) for set TIPMARKER and time  0.2207730E+02

         2  9.549904E-04 -2.739631E-01 -2.443697E-03

 displacements (vx,vy,vz) for set TIPMARKER and time  0.2222998E+02

         2  9.624303E-04 -2.735922E-01 -2.380921E-03

 displacements (vx,vy,vz) for set TIPMARKER and time  0.2238266E+02

         2  9.699633E-04 -2.716718E-01 -2.320415E-03

 displacements (vx,vy,vz) for set TIPMARKER and time  0.2253535E+02

         2  9.775356E-04 -2.685643E-01 -2.277079E-03

 displacements (vx,vy,vz) for set TIPMARKER and time  0.2276437E+02

         2  9.890257E-04 -2.629451E-01 -2.266297E-03

 displacements (vx,vy,vz) for set TIPMARKER and time  0.2310791E+02

         2  1.006143E-03 -2.566817E-01 -2.272393E-03

 displacements (vx,vy,vz) for set TIPMARKER and time  0.2319379E+02

         2  1.010307E-03 -2.559858E-01 -2.267034E-03

 displacements (vx,vy,vz) for set TIPMARKER and time  0.2327968E+02

         2  1.014581E-03 -2.557999E-01 -2.288598E-03

 displacements (vx,vy,vz) for set TIPMARKER and time  0.2340850E+02

         2  1.021205E-03 -2.565362E-01 -2.365740E-03

 displacements (vx,vy,vz) for set TIPMARKER and time  0.2345681E+02

         2  1.023645E-03 -2.571331E-01 -2.392682E-03

 displacements (vx,vy,vz) for set TIPMARKER and time  0.2350512E+02

         2  1.026019E-03 -2.578942E-01 -2.410963E-03

 displacements (vx,vy,vz) for set TIPMARKER and time  0.2357759E+02

         2  1.029497E-03 -2.593154E-01 -2.425907E-03

 displacements (vx,vy,vz) for set TIPMARKER and time  0.2365005E+02

         2  1.033025E-03 -2.610629E-01 -2.438812E-03

 displacements (vx,vy,vz) for set TIPMARKER and time  0.2372251E+02

         2  1.036586E-03 -2.631015E-01 -2.459069E-03

 displacements (vx,vy,vz) for set TIPMARKER and time  0.2379498E+02

         2  1.040134E-03 -2.653526E-01 -2.487661E-03

 displacements (vx,vy,vz) for set TIPMARKER and time  0.2386744E+02

         2  1.043799E-03 -2.677447E-01 -2.531785E-03

 displacements (vx,vy,vz) for set TIPMARKER and time  0.2397614E+02

         2  1.049298E-03 -2.714318E-01 -2.591807E-03

 displacements (vx,vy,vz) for set TIPMARKER and time  0.2413919E+02

         2  1.057178E-03 -2.767436E-01 -2.610881E-03

 displacements (vx,vy,vz) for set TIPMARKER and time  0.2438376E+02

         2  1.069024E-03 -2.829835E-01 -2.617411E-03

 displacements (vx,vy,vz) for set TIPMARKER and time  0.2475061E+02

         2  1.087290E-03 -2.851492E-01 -2.602968E-03

 displacements (vx,vy,vz) for set TIPMARKER and time  0.2530089E+02

         2  1.114312E-03 -2.751544E-01 -2.360674E-03

 displacements (vx,vy,vz) for set TIPMARKER and time  0.2585117E+02
